
     Program PWSCF v.7.1 starts on  3Dec2023 at 15:25:58 

     This program is part of the open-source Quantum ESPRESSO suite
     for quantum simulation of materials; please cite
         "P. Giannozzi et al., J. Phys.:Condens. Matter 21 395502 (2009);
         "P. Giannozzi et al., J. Phys.:Condens. Matter 29 465901 (2017);
         "P. Giannozzi et al., J. Chem. Phys. 152 154105 (2020);
          URL http://www.quantum-espresso.org", 
     in publications or presentations arising from this work. More details at
     http://www.quantum-espresso.org/quote

     Parallel version (MPI & OpenMP), running on      28 processor cores
     Number of MPI processes:                28
     Threads/MPI process:                     1

     MPI processes distributed on     1 nodes
     122402 MiB available memory on the printing compute node when the environment starts
 
     Reading input from AlH3_opt.in

     Current dimensions of program PWSCF are:
     Max number of different atomic species (ntypx) = 10
     Max number of k-points (npk) =  40000
     Max angular momentum in pseudopotentials (lmaxx) =  4

     File ./AlH3.update deleted, as requested

     File ./AlH3.bfgs deleted, as requested
     file Al.pbe-n-kjpaw_psl.1.0.0.UPF: wavefunction(s)  3S 3P renormalized

     IMPORTANT: XC functional enforced from input :
     Exchange-correlation= PBE
                           (   1   4   3   4   0   0   0)
     Any further DFT definition will be discarded
     Please, verify this is what you really want

     Found identity + (  0.0000 -0.5000 -0.5000) symmetry
     This is a supercell, fractional translations are disabled
     Message from routine setup:
     using ibrav=0 with symmetry is DISCOURAGED, use correct ibrav instead
 
     R & G space division:  proc/nbgrp/npool/nimage =      28
     Subspace diagonalization in iterative solution of the eigenvalue problem:
     a serial algorithm will be used

 
     Parallelization info
     --------------------
     sticks:   dense  smooth     PW     G-vecs:    dense   smooth      PW
     Min         228     228     61                13785    13785    1889
     Max         230     230     62                13789    13789    1895
     Sum        6409    6409   1709               386027   386027   52971
 
     Using Slab Decomposition
 


     bravais-lattice index     =            0
     lattice parameter (alat)  =      16.9673  a.u.
     unit-cell volume          =    4884.6897 (a.u.)^3
     number of atoms/cell      =           64
     number of atomic types    =            2
     number of electrons       =        96.00
     number of Kohn-Sham states=           58
     kinetic-energy cutoff     =      70.0000  Ry
     charge density cutoff     =     280.0000  Ry
     scf convergence threshold =      1.0E-08
     mixing beta               =       0.7000
     number of iterations used =            8  plain     mixing
     energy convergence thresh.=      1.0E-04
     force convergence thresh. =      1.0E-03
     press convergence thresh. =      5.0E-01
     Exchange-correlation= PBE
                           (   1   4   3   4   0   0   0)
     nstep                     =           50


     celldm(1)=  16.967284  celldm(2)=   0.000000  celldm(3)=   0.000000
     celldm(4)=   0.000000  celldm(5)=   0.000000  celldm(6)=   0.000000

     crystal axes: (cart. coord. in units of alat)
               a(1) = (   1.000000   0.000000   0.000000 )  
               a(2) = (   0.000000   1.000000   0.000000 )  
               a(3) = (   0.000000   0.000000   1.000000 )  

     reciprocal axes: (cart. coord. in units 2 pi/alat)
               b(1) = (  1.000000  0.000000  0.000000 )  
               b(2) = (  0.000000  1.000000  0.000000 )  
               b(3) = (  0.000000  0.000000  1.000000 )  


     PseudoPot. # 1 for H  read from file:
     /scratch/antwerpen/209/vsc20922/pseudos/H.pbe-rrkjus_psl.1.0.0.UPF
     MD5 check sum: f52b6d4d1c606e5624b1dc7b2218f220
     Pseudo is Ultrasoft, Zval =  1.0
     Generated using "atomic" code by A. Dal Corso  v.5.1
     Using radial grid of  929 points,  2 beta functions with: 
                l(1) =   0
                l(2) =   0
     Q(r) pseudized with 0 coefficients 


     PseudoPot. # 2 for Al read from file:
     /scratch/antwerpen/209/vsc20922/pseudos/Al.pbe-n-kjpaw_psl.1.0.0.UPF
     MD5 check sum: cfc449ca30b5f3223ec38ddd88ac046d
     Pseudo is Projector augmented-wave + core cor, Zval =  3.0
     Generated using "atomic" code by A. Dal Corso  v.5.1
     Shape of augmentation charge: PSQ
     Using radial grid of 1135 points,  6 beta functions with: 
                l(1) =   0
                l(2) =   0
                l(3) =   1
                l(4) =   1
                l(5) =   2
                l(6) =   2
     Q(r) pseudized with 0 coefficients 


     atomic species   valence    mass     pseudopotential
        H              1.00     1.00750     H ( 1.00)
        Al             3.00    26.98100     Al( 1.00)

     24 Sym. Ops. (no inversion) found



   Cartesian axes

     site n.     atom                  positions (alat units)
         1           Al  tau(   1) = (   0.1250000   0.3750000   0.3750000  )
         2           Al  tau(   2) = (   0.3750000   0.1250000   0.3750000  )
         3           Al  tau(   3) = (   0.3750000   0.8750000   0.6250000  )
         4           Al  tau(   4) = (   0.1250000   0.1250000   0.1250000  )
         5           Al  tau(   5) = (   0.1250000   0.8750000   0.8750000  )
         6           Al  tau(   6) = (   0.3750000   0.6250000   0.8750000  )
         7           Al  tau(   7) = (   0.3750000   0.3750000   0.1250000  )
         8           Al  tau(   8) = (   0.1250000   0.6250000   0.6250000  )
         9           Al  tau(   9) = (   0.6250000   0.3750000   0.8750000  )
        10           Al  tau(  10) = (   0.8750000   0.1250000   0.8750000  )
        11           Al  tau(  11) = (   0.8750000   0.8750000   0.1250000  )
        12           Al  tau(  12) = (   0.6250000   0.1250000   0.6250000  )
        13           Al  tau(  13) = (   0.6250000   0.8750000   0.3750000  )
        14           Al  tau(  14) = (   0.8750000   0.6250000   0.3750000  )
        15           Al  tau(  15) = (   0.8750000   0.3750000   0.6250000  )
        16           Al  tau(  16) = (   0.6250000   0.6250000   0.1250000  )
        17           H   tau(  17) = (   0.5000000   0.0000000   0.3050904  )
        18           H   tau(  18) = (   0.5000000   0.0000000   0.6949096  )
        19           H   tau(  19) = (   0.5000000   0.8050904   0.5000000  )
        20           H   tau(  20) = (   0.5000000   0.1949096   0.5000000  )
        21           H   tau(  21) = (   0.3050904   0.0000000   0.5000000  )
        22           H   tau(  22) = (   0.1949096   0.0000000   0.0000000  )
        23           H   tau(  23) = (   0.2500000   0.2500000   0.4449096  )
        24           H   tau(  24) = (   0.2500000   0.2500000   0.0550904  )
        25           H   tau(  25) = (   0.2500000   0.4449096   0.2500000  )
        26           H   tau(  26) = (   0.2500000   0.0550904   0.2500000  )
        27           H   tau(  27) = (   0.4449096   0.2500000   0.2500000  )
        28           H   tau(  28) = (   0.5550904   0.2500000   0.7500000  )
        29           H   tau(  29) = (   0.5000000   0.5000000   0.8050904  )
        30           H   tau(  30) = (   0.5000000   0.5000000   0.1949096  )
        31           H   tau(  31) = (   0.5000000   0.3050904   0.0000000  )
        32           H   tau(  32) = (   0.5000000   0.6949096   0.0000000  )
        33           H   tau(  33) = (   0.3050904   0.5000000   0.0000000  )
        34           H   tau(  34) = (   0.1949096   0.5000000   0.5000000  )
        35           H   tau(  35) = (   0.2500000   0.7500000   0.9449096  )
        36           H   tau(  36) = (   0.2500000   0.7500000   0.5550904  )
        37           H   tau(  37) = (   0.2500000   0.9449096   0.7500000  )
        38           H   tau(  38) = (   0.2500000   0.5550904   0.7500000  )
        39           H   tau(  39) = (   0.4449096   0.7500000   0.7500000  )
        40           H   tau(  40) = (   0.5550904   0.7500000   0.2500000  )
        41           H   tau(  41) = (   0.0000000   0.0000000   0.8050904  )
        42           H   tau(  42) = (   0.0000000   0.0000000   0.1949096  )
        43           H   tau(  43) = (   0.0000000   0.8050904   0.0000000  )
        44           H   tau(  44) = (   0.0000000   0.1949096   0.0000000  )
        45           H   tau(  45) = (   0.8050904   0.0000000   0.0000000  )
        46           H   tau(  46) = (   0.6949096   0.0000000   0.5000000  )
        47           H   tau(  47) = (   0.7500000   0.2500000   0.9449096  )
        48           H   tau(  48) = (   0.7500000   0.2500000   0.5550904  )
        49           H   tau(  49) = (   0.7500000   0.4449096   0.7500000  )
        50           H   tau(  50) = (   0.7500000   0.0550904   0.7500000  )
        51           H   tau(  51) = (   0.9449096   0.2500000   0.7500000  )
        52           H   tau(  52) = (   0.0550904   0.2500000   0.2500000  )
        53           H   tau(  53) = (   0.0000000   0.5000000   0.3050904  )
        54           H   tau(  54) = (   0.0000000   0.5000000   0.6949096  )
        55           H   tau(  55) = (   0.0000000   0.3050904   0.5000000  )
        56           H   tau(  56) = (   0.0000000   0.6949096   0.5000000  )
        57           H   tau(  57) = (   0.8050904   0.5000000   0.5000000  )
        58           H   tau(  58) = (   0.6949096   0.5000000   0.0000000  )
        59           H   tau(  59) = (   0.7500000   0.7500000   0.4449096  )
        60           H   tau(  60) = (   0.7500000   0.7500000   0.0550904  )
        61           H   tau(  61) = (   0.7500000   0.9449096   0.2500000  )
        62           H   tau(  62) = (   0.7500000   0.5550904   0.2500000  )
        63           H   tau(  63) = (   0.9449096   0.7500000   0.2500000  )
        64           H   tau(  64) = (   0.0550904   0.7500000   0.7500000  )

     number of k points=    20  Marzari-Vanderbilt smearing, width (Ry)=  0.0050
                       cart. coord. in units 2pi/alat
        k(    1) = (   0.0000000   0.0000000   0.0000000), wk =   0.0058309
        k(    2) = (   0.0000000   0.0000000   0.1428571), wk =   0.0349854
        k(    3) = (   0.0000000   0.0000000   0.2857143), wk =   0.0349854
        k(    4) = (   0.0000000   0.0000000   0.4285714), wk =   0.0349854
        k(    5) = (   0.0000000   0.1428571   0.1428571), wk =   0.0699708
        k(    6) = (   0.0000000   0.1428571   0.2857143), wk =   0.1399417
        k(    7) = (   0.0000000   0.1428571   0.4285714), wk =   0.1399417
        k(    8) = (   0.0000000   0.2857143   0.2857143), wk =   0.0699708
        k(    9) = (   0.0000000   0.2857143   0.4285714), wk =   0.1399417
        k(   10) = (   0.0000000   0.4285714   0.4285714), wk =   0.0699708
        k(   11) = (   0.1428571   0.1428571   0.1428571), wk =   0.0466472
        k(   12) = (   0.1428571   0.1428571   0.2857143), wk =   0.1399417
        k(   13) = (   0.1428571   0.1428571   0.4285714), wk =   0.1399417
        k(   14) = (   0.1428571   0.2857143   0.2857143), wk =   0.1399417
        k(   15) = (   0.1428571   0.2857143   0.4285714), wk =   0.2798834
        k(   16) = (   0.1428571   0.4285714   0.4285714), wk =   0.1399417
        k(   17) = (   0.2857143   0.2857143   0.2857143), wk =   0.0466472
        k(   18) = (   0.2857143   0.2857143   0.4285714), wk =   0.1399417
        k(   19) = (   0.2857143   0.4285714   0.4285714), wk =   0.1399417
        k(   20) = (   0.4285714   0.4285714   0.4285714), wk =   0.0466472

     Dense  grid:   386027 G-vectors     FFT dimensions: (  96,  96,  96)

     Estimated max dynamical RAM per process >     125.52 MB

     Estimated total dynamical RAM >       3.43 GB

     Initial potential from superposition of free atoms

     starting charge      95.9629, renormalised to      96.0000
     Starting wfcs are  112 randomized atomic wfcs
     Checking if some PAW data can be deallocated... 

     total cpu time spent up to now is        6.3 secs

     Self-consistent Calculation

     iteration #  1     ecut=    70.00 Ry     beta= 0.70
     Davidson diagonalization with overlap
     ethr =  1.00E-02,  avg # of iterations =  3.1

     total cpu time spent up to now is       15.3 secs

     total energy              =    -687.92087372 Ry
     estimated scf accuracy    <       2.82072399 Ry

     iteration #  2     ecut=    70.00 Ry     beta= 0.70
     Davidson diagonalization with overlap
     ethr =  2.94E-03,  avg # of iterations =  1.0

     total cpu time spent up to now is       21.6 secs

     total energy              =    -688.05966260 Ry
     estimated scf accuracy    <       0.08252654 Ry

     iteration #  3     ecut=    70.00 Ry     beta= 0.70
     Davidson diagonalization with overlap
     c_bands:  1 eigenvalues not converged
     ethr =  8.60E-05,  avg # of iterations = 12.8

     total cpu time spent up to now is       34.8 secs

     total energy              =    -688.08741106 Ry
     estimated scf accuracy    <       0.00320486 Ry

     iteration #  4     ecut=    70.00 Ry     beta= 0.70
     Davidson diagonalization with overlap
     c_bands:  1 eigenvalues not converged
     c_bands:  1 eigenvalues not converged
     c_bands:  1 eigenvalues not converged
     c_bands:  1 eigenvalues not converged
     c_bands:  2 eigenvalues not converged
     c_bands:  1 eigenvalues not converged
     ethr =  3.34E-06,  avg # of iterations = 14.4

     total cpu time spent up to now is       48.5 secs

     total energy              =    -688.08830871 Ry
     estimated scf accuracy    <       0.00162352 Ry

     iteration #  5     ecut=    70.00 Ry     beta= 0.70
     Davidson diagonalization with overlap
     c_bands:  1 eigenvalues not converged
     ethr =  1.69E-06,  avg # of iterations =  3.5

     total cpu time spent up to now is       55.9 secs

     total energy              =    -688.08841825 Ry
     estimated scf accuracy    <       0.00009198 Ry

     iteration #  6     ecut=    70.00 Ry     beta= 0.70
     Davidson diagonalization with overlap
     ethr =  9.58E-08,  avg # of iterations =  4.5

     total cpu time spent up to now is       65.3 secs

     total energy              =    -688.08846090 Ry
     estimated scf accuracy    <       0.00000192 Ry

     iteration #  7     ecut=    70.00 Ry     beta= 0.70
     Davidson diagonalization with overlap
     ethr =  2.00E-09,  avg # of iterations =  4.8

     total cpu time spent up to now is       75.2 secs

     total energy              =    -688.08846223 Ry
     estimated scf accuracy    <       0.00000012 Ry

     iteration #  8     ecut=    70.00 Ry     beta= 0.70
     Davidson diagonalization with overlap
     ethr =  1.28E-10,  avg # of iterations =  3.3

     total cpu time spent up to now is       83.3 secs

     total energy              =    -688.08846218 Ry
     estimated scf accuracy    <       0.00000013 Ry

     iteration #  9     ecut=    70.00 Ry     beta= 0.70
     Davidson diagonalization with overlap
     ethr =  1.28E-10,  avg # of iterations =  2.0

     total cpu time spent up to now is       91.4 secs

     End of self-consistent calculation

          k = 0.0000 0.0000 0.0000 ( 48489 PWs)   bands (ev):

    -9.1523  -7.9155  -7.9155  -7.9155  -7.9155  -7.9155  -7.9155  -5.8843
    -5.8843  -5.8843  -5.8843  -5.8843  -5.8843  -4.9524  -4.9524  -4.9524
    -4.8816  -4.1459  -4.1459  -4.1459  -4.1459  -4.1459  -4.1459  -4.0537
    -4.0537  -4.0537  -3.6316  -3.6316  -2.3269  -2.3269  -2.3269  -2.3269
    -2.3269  -2.3269  -2.1727  -2.1727  -2.1727  -2.1727  -2.1727  -2.1727
    -1.4650  -1.4650  -1.4650  -1.4650  -1.4650  -1.4650  -0.1751  -0.1751
     3.0611   3.0611   3.0611   3.0611   3.0611   3.0611   3.3621   4.7931
     4.7931   4.7931

          k = 0.0000 0.0000 0.1429 ( 48313 PWs)   bands (ev):

    -9.1260  -8.2329  -7.9136  -7.9136  -7.9136  -7.9136  -7.5593  -5.9042
    -5.9042  -5.9042  -5.9042  -5.8577  -5.8577  -5.3775  -5.0580  -5.0580
    -4.5003  -4.1518  -4.1283  -4.0756  -4.0755  -4.0755  -4.0755  -4.0603
    -3.9114  -3.9114  -3.6037  -3.5932  -2.6586  -2.4993  -2.4993  -2.4993
    -2.4993  -2.2619  -2.2619  -2.0985  -2.0985  -2.0985  -2.0985  -1.9608
    -1.8505  -1.4248  -1.4248  -1.4248  -1.4248  -1.1190  -0.2553  -0.1988
     3.1107   3.1107   3.1107   3.1107   3.1892   3.1892   3.4273   4.8128
     4.8190   4.8190

          k = 0.0000 0.0000 0.2857 ( 48309 PWs)   bands (ev):

    -9.0473  -8.5075  -7.9091  -7.9091  -7.9091  -7.9091  -7.1685  -5.9465
    -5.9465  -5.9465  -5.9465  -5.8443  -5.7785  -5.7785  -5.2661  -5.2661
    -4.2111  -4.1447  -4.1043  -4.0781  -3.8896  -3.8896  -3.8896  -3.8896
    -3.5965  -3.5965  -3.5201  -3.4302  -2.9481  -2.7895  -2.7895  -2.7895
    -2.7895  -2.5038  -2.5038  -2.2640  -2.0460  -2.0460  -2.0460  -2.0460
    -1.5716  -1.3475  -1.3475  -1.3475  -1.3475  -0.8219  -0.4776  -0.2716
     3.2355   3.2355   3.2355   3.2356   3.5460   3.5460   3.6192   4.8055
     4.8611   4.8611

          k = 0.0000 0.0000 0.4286 ( 48310 PWs)   bands (ev):

    -8.9170  -8.7364  -7.9055  -7.9055  -7.9055  -7.9055  -6.7483  -6.3045
    -5.9783  -5.9783  -5.9783  -5.9783  -5.6490  -5.6490  -5.4743  -5.4743
    -4.1267  -4.1024  -4.0992  -4.0857  -3.6696  -3.6696  -3.6696  -3.6696
    -3.3819  -3.2220  -3.2220  -3.1904  -3.1016  -3.0628  -3.0628  -3.0628
    -3.0628  -2.8423  -2.8423  -2.6904  -2.0267  -2.0267  -2.0267  -2.0267
    -1.2954  -1.2954  -1.2954  -1.2954  -1.1761  -0.7995  -0.5805  -0.3975
     3.3546   3.3546   3.3546   3.3546   3.9274   4.0657   4.0657   4.3332
     4.6315   4.6315

          k = 0.0000 0.1429 0.1429 ( 48302 PWs)   bands (ev):

    -9.1000  -8.2225  -8.2225  -7.9756  -7.8481  -7.5695  -7.5694  -5.9792
    -5.8876  -5.8876  -5.8652  -5.8652  -5.8477  -5.6115  -5.1484  -5.0155
    -4.4805  -4.1434  -4.0761  -4.0761  -4.0657  -4.0657  -4.0082  -3.8894
    -3.8430  -3.7940  -3.5691  -3.5147  -2.7883  -2.7883  -2.6524  -2.4226
    -2.4063  -2.3647  -2.3647  -2.2938  -2.2938  -1.9226  -1.9226  -1.8468
    -1.7181  -1.7181  -1.5352  -1.2988  -1.1350  -1.1350  -0.3082  -0.2496
     3.1271   3.1987   3.2276   3.2276   3.2415   3.2415   3.4914   4.7212
     4.8417   4.9642

          k = 0.0000 0.1429 0.2857 ( 48333 PWs)   bands (ev):

    -9.0223  -8.4913  -8.1928  -8.0357  -7.7794  -7.5998  -7.1963  -6.0364
    -5.9916  -5.9557  -5.8767  -5.8345  -5.8173  -5.7701  -5.3368  -5.1872
    -4.2850  -4.0721  -4.0653  -4.0537  -4.0000  -3.9060  -3.8752  -3.6672
    -3.6354  -3.5740  -3.4647  -3.2155  -3.0718  -3.0573  -2.8742  -2.7600
    -2.6007  -2.5949  -2.5350  -2.3658  -2.3168  -2.0411  -1.8690  -1.7618
    -1.5926  -1.5013  -1.4996  -1.2228  -1.1817  -0.8635  -0.5206  -0.3311
     3.2324   3.3325   3.3574   3.3590   3.5706   3.5867   3.6800   4.6843
     4.8642   5.0167

          k = 0.0000 0.1429 0.4286 ( 48328 PWs)   bands (ev):

    -8.8938  -8.7160  -8.1481  -8.0940  -7.7107  -7.6485  -6.8019  -6.3960
    -6.0519  -6.0206  -5.8738  -5.8533  -5.6964  -5.6198  -5.5316  -5.4190
    -4.1166  -4.0572  -4.0451  -4.0204  -3.8984  -3.7782  -3.6111  -3.5260
    -3.4432  -3.3213  -3.2548  -3.2374  -3.2179  -3.0799  -3.0506  -2.9466
    -2.8735  -2.8518  -2.8177  -2.4133  -2.3419  -2.3284  -1.8286  -1.7929
    -1.3684  -1.3242  -1.2586  -1.2286  -1.2121  -0.8403  -0.6333  -0.4554
     3.3666   3.4271   3.4568   3.4856   3.9816   4.0732   4.0790   4.3754
     4.5702   4.6090

          k = 0.0000 0.2857 0.2857 ( 48298 PWs)   bands (ev):

    -8.9477  -8.4436  -8.4436  -8.1576  -7.6466  -7.2733  -7.2733  -6.2807
    -6.0785  -5.9074  -5.9074  -5.7460  -5.7460  -5.7418  -5.4940  -5.1759
    -4.3164  -4.1407  -3.9423  -3.9423  -3.8739  -3.8573  -3.8573  -3.6395
    -3.4554  -3.4010  -3.3550  -3.3036  -3.3036  -3.0279  -2.8399  -2.8296
    -2.6466  -2.6466  -2.6329  -2.6329  -2.6140  -1.7265  -1.7264  -1.6840
    -1.6476  -1.6476  -1.4639  -1.1891  -0.9697  -0.9697  -0.6856  -0.4547
     3.3335   3.5781   3.6437   3.6437   3.6537   3.6537   3.8580   4.5800
     4.7434   4.7960

          k = 0.0000 0.2857 0.4286 ( 48350 PWs)   bands (ev):

    -8.8248  -8.6558  -8.3682  -8.2706  -7.5128  -7.3844  -6.9388  -6.6047
    -6.0650  -6.0016  -5.8070  -5.7156  -5.7036  -5.6634  -5.5606  -5.3447
    -4.1857  -4.0758  -4.0324  -3.9413  -3.8385  -3.8315  -3.5815  -3.5773
    -3.4803  -3.3412  -3.3067  -3.2385  -3.1918  -3.1131  -3.0338  -2.9717
    -2.8793  -2.8040  -2.6593  -2.6593  -2.4240  -2.0441  -1.7283  -1.7074
    -1.4556  -1.3236  -1.2739  -1.2686  -1.1097  -0.9782  -0.7630  -0.5920
     3.4941   3.6309   3.7459   3.7652   4.0575   4.1062   4.1388   4.4929
     4.4931   4.5024

          k = 0.0000 0.4286 0.4286 ( 48268 PWs)   bands (ev):

    -8.7119  -8.5582  -8.5582  -8.4277  -7.3139  -7.1184  -7.1184  -6.8553
    -6.0198  -5.9270  -5.9270  -5.8078  -5.5785  -5.5302  -5.5302  -5.3790
    -4.2083  -4.1538  -4.1087  -4.1087  -3.6573  -3.5840  -3.5840  -3.4879
    -3.4050  -3.4050  -3.3699  -3.2172  -3.1621  -3.0973  -2.9809  -2.9603
    -2.9603  -2.9229  -2.9229  -2.8857  -2.0390  -1.7036  -1.7036  -1.6580
    -1.4957  -1.4957  -1.4336  -1.2184  -1.0937  -0.9214  -0.9214  -0.7491
     3.6978   3.9159   3.9159   4.1278   4.1792   4.1792   4.2162   4.4163
     4.4635   4.4694

          k = 0.1429 0.1429 0.1429 ( 48281 PWs)   bands (ev):

    -9.0744  -8.2181  -8.2181  -8.2181  -7.5744  -7.5744  -7.5744  -5.9464
    -5.9464  -5.9464  -5.8222  -5.8222  -5.8222  -5.7942  -5.0971  -5.0971
    -4.5011  -4.1385  -4.1385  -4.1385  -3.9292  -3.9292  -3.8883  -3.8883
    -3.8883  -3.5438  -3.5024  -3.5024  -2.8615  -2.8615  -2.8615  -2.5416
    -2.5416  -2.5416  -2.2635  -2.2635  -2.2635  -1.8341  -1.8341  -1.8341
    -1.6890  -1.6890  -1.6890  -1.1429  -1.1429  -1.1429  -0.3307  -0.3307
     3.2384   3.2384   3.2384   3.3259   3.3259   3.3259   3.5542   4.6319
     4.9878   5.1483

          k = 0.1429 0.1429 0.2857 ( 48351 PWs)   bands (ev):

    -8.9978  -8.4776  -8.2081  -8.2081  -7.5861  -7.5861  -7.2232  -6.1245
    -6.0011  -6.0011  -5.8481  -5.8055  -5.8055  -5.7467  -5.2734  -5.2296
    -4.3556  -4.1263  -4.0707  -4.0707  -3.9606  -3.8898  -3.7690  -3.6477
    -3.6477  -3.4782  -3.2977  -3.1471  -3.1361  -3.0780  -3.0780  -2.8192
    -2.7219  -2.7219  -2.3566  -2.3468  -2.3468  -1.9701  -1.7597  -1.7597
    -1.6043  -1.5477  -1.5477  -1.1725  -1.1725  -0.9064  -0.5542  -0.3997
     3.3191   3.3191   3.4801   3.4801   3.5468   3.6794   3.7384   4.5549
     4.9837   4.9839

          k = 0.1429 0.1429 0.4286 ( 48306 PWs)   bands (ev):

    -8.8714  -8.6970  -8.1997  -8.1996  -7.5960  -7.5960  -6.8563  -6.4860
    -6.0283  -6.0283  -5.8104  -5.8104  -5.6861  -5.6242  -5.4689  -5.4614
    -4.1714  -4.1193  -3.9538  -3.9175  -3.9175  -3.9102  -3.5891  -3.5308
    -3.5308  -3.3809  -3.3689  -3.1679  -3.1679  -3.1311  -2.9897  -2.9410
    -2.9410  -2.7299  -2.6501  -2.4077  -2.4077  -2.3265  -1.7447  -1.7447
    -1.3920  -1.3920  -1.2429  -1.2295  -1.2295  -0.8751  -0.6900  -0.5189
     3.4165   3.4166   3.5957   3.5957   3.9851   4.0298   4.1914   4.4062
     4.4072   4.7505

          k = 0.1429 0.2857 0.2857 ( 48291 PWs)   bands (ev):

    -8.9249  -8.4385  -8.4385  -8.2512  -7.5441  -7.2940  -7.2940  -6.3902
    -6.0278  -5.9006  -5.9006  -5.7203  -5.7167  -5.7167  -5.4041  -5.2132
    -4.3879  -4.1410  -4.0731  -4.0731  -3.8917  -3.7900  -3.6990  -3.6989
    -3.4113  -3.3134  -3.3134  -3.2836  -3.2178  -3.1902  -2.9137  -2.9137
    -2.8870  -2.8041  -2.4459  -2.3693  -2.3693  -1.7522  -1.7522  -1.6650
    -1.6241  -1.6241  -1.5186  -1.1941  -1.0157  -1.0157  -0.7040  -0.5370
     3.3817   3.5604   3.5604   3.7019   3.8151   3.8151   3.9063   4.4223
     4.7790   4.7906

          k = 0.1429 0.2857 0.4286 ( 48321 PWs)   bands (ev):

    -8.8051  -8.6413  -8.3802  -8.3131  -7.4744  -7.3855  -6.9902  -6.6865
    -6.0100  -5.9603  -5.7526  -5.6901  -5.6821  -5.5804  -5.5650  -5.3673
    -4.2469  -4.1119  -4.0851  -3.9993  -3.8657  -3.7993  -3.6707  -3.6532
    -3.5005  -3.4843  -3.2843  -3.2277  -3.2138  -3.1218  -2.9316  -2.9307
    -2.9290  -2.6095  -2.5428  -2.4869  -2.4079  -2.0392  -1.6938  -1.6880
    -1.4784  -1.3490  -1.3400  -1.2765  -1.1581  -0.9981  -0.8293  -0.6683
     3.4881   3.5617   3.8870   3.8973   3.9026   4.1281   4.2883   4.2969
     4.4999   4.7105

          k = 0.1429 0.4286 0.4286 ( 48312 PWs)   bands (ev):

    -8.6973  -8.5528  -8.5528  -8.4391  -7.3222  -7.1555  -7.1555  -6.9194
    -5.9482  -5.8544  -5.8544  -5.7213  -5.5657  -5.5240  -5.5240  -5.3838
    -4.2529  -4.1683  -4.1426  -4.1426  -3.7436  -3.7031  -3.7031  -3.6618
    -3.4992  -3.4838  -3.4838  -3.4465  -3.0130  -2.9617  -2.9617  -2.8850
    -2.7832  -2.7204  -2.6603  -2.6603  -2.0427  -1.7259  -1.7259  -1.6494
    -1.4907  -1.4907  -1.4508  -1.2278  -1.1684  -0.9959  -0.9959  -0.8304
     3.6247   3.7786   3.7786   4.0082   4.2427   4.3451   4.3451   4.4271
     4.5800   4.6103

          k = 0.2857 0.2857 0.2857 ( 48317 PWs)   bands (ev):

    -8.8572  -8.4266  -8.4266  -8.4266  -7.3389  -7.3389  -7.3389  -6.6158
    -5.8822  -5.8822  -5.8822  -5.6575  -5.6575  -5.6575  -5.3109  -5.3109
    -4.4761  -4.1499  -4.1499  -4.1499  -3.8808  -3.8808  -3.5853  -3.5853
    -3.5852  -3.4332  -3.4332  -3.4332  -3.0152  -3.0152  -2.9502  -2.9502
    -2.9502  -2.6322  -2.2689  -2.2689  -2.2689  -1.7362  -1.7361  -1.7361
    -1.5760  -1.5760  -1.5760  -1.1339  -1.1339  -1.1339  -0.7611  -0.7611
     3.5215   3.5215   3.5215   4.0140   4.0424   4.0424   4.0424   4.2759
     4.7040   4.7041

          k = 0.2857 0.2857 0.4286 ( 48267 PWs)   bands (ev):

    -8.7473  -8.6004  -8.4166  -8.4166  -7.3737  -7.3737  -7.1069  -6.8635
    -5.8647  -5.8647  -5.6651  -5.6171  -5.6171  -5.5590  -5.4366  -5.4307
    -4.3700  -4.2083  -4.1310  -4.1310  -3.8923  -3.7969  -3.7964  -3.7007
    -3.7007  -3.6433  -3.4706  -3.4706  -2.9781  -2.9729  -2.7822  -2.7822
    -2.6914  -2.3898  -2.3723  -2.3723  -2.2995  -1.9727  -1.6778  -1.6778
    -1.4668  -1.4668  -1.3938  -1.2863  -1.2863  -1.0720  -0.9951  -0.8596
     3.5096   3.5096   3.7336   3.9550   4.2102   4.2102   4.3331   4.4999
     4.5234   4.6720

          k = 0.2857 0.4286 0.4286 ( 48268 PWs)   bands (ev):

    -8.6561  -8.5404  -8.5404  -8.4740  -7.3244  -7.2305  -7.2305  -7.0560
    -5.7645  -5.6865  -5.6865  -5.5398  -5.5305  -5.5082  -5.5082  -5.4012
    -4.3884  -4.2552  -4.2552  -4.2348  -3.8552  -3.8324  -3.8215  -3.8215
    -3.7222  -3.7002  -3.7002  -3.6923  -2.7194  -2.7034  -2.7034  -2.5902
    -2.5687  -2.4399  -2.3909  -2.3909  -2.0398  -1.7813  -1.7813  -1.6786
    -1.4797  -1.4797  -1.4533  -1.3477  -1.2583  -1.1851  -1.1851  -1.0456
     3.5207   3.6007   3.6007   3.7599   4.4061   4.4897   4.4898   4.5356
     4.5487   4.6503

          k = 0.4286 0.4286 0.4286 ( 48290 PWs)   bands (ev):

    -8.5959  -8.5300  -8.5300  -8.5300  -7.2845  -7.2845  -7.2845  -7.1906
    -5.5471  -5.5471  -5.5471  -5.4823  -5.4823  -5.4823  -5.4351  -5.4351
    -4.4879  -4.3875  -4.3875  -4.3875  -3.8912  -3.8912  -3.8678  -3.8678
    -3.8678  -3.8335  -3.8334  -3.8334  -2.4351  -2.4351  -2.4351  -2.4186
    -2.4186  -2.2735  -2.2735  -2.2735  -1.9689  -1.8100  -1.8100  -1.8100
    -1.4658  -1.4658  -1.4658  -1.3894  -1.3894  -1.3894  -1.3137  -1.3137
     3.4962   3.4962   3.4962   3.5798   4.3583   4.3921   4.3921   4.3921
     4.9318   4.9318

     the Fermi energy is     1.9133 ev

!    total energy              =    -688.08846221 Ry
     estimated scf accuracy    <          1.4E-09 Ry
     smearing contrib. (-TS)   =       0.00000000 Ry
     internal energy E=F+TS    =    -688.08846221 Ry

     The total energy is F=E-TS. E is the sum of the following terms:
     one-electron contribution =     -25.17696999 Ry
     hartree contribution      =      40.08025913 Ry
     xc contribution           =     -76.31398311 Ry
     ewald contribution        =     -71.92992770 Ry
     one-center paw contrib.   =    -554.74784054 Ry

     convergence has been achieved in   9 iterations

     Forces acting on atoms (cartesian axes, Ry/au):

     atom    1 type  2   force =    -0.00000020   -0.00000018   -0.00000018
     atom    2 type  2   force =    -0.00000018   -0.00000020   -0.00000018
     atom    3 type  2   force =    -0.00000018    0.00000020    0.00000018
     atom    4 type  2   force =    -0.00000010   -0.00000010   -0.00000010
     atom    5 type  2   force =    -0.00000010    0.00000010    0.00000010
     atom    6 type  2   force =    -0.00000018    0.00000018    0.00000020
     atom    7 type  2   force =    -0.00000018   -0.00000018   -0.00000020
     atom    8 type  2   force =    -0.00000020    0.00000018    0.00000018
     atom    9 type  2   force =     0.00000018   -0.00000018    0.00000020
     atom   10 type  2   force =     0.00000010   -0.00000010    0.00000010
     atom   11 type  2   force =     0.00000010    0.00000010   -0.00000010
     atom   12 type  2   force =     0.00000018   -0.00000020    0.00000018
     atom   13 type  2   force =     0.00000018    0.00000020   -0.00000018
     atom   14 type  2   force =     0.00000020    0.00000018   -0.00000018
     atom   15 type  2   force =     0.00000020   -0.00000018    0.00000018
     atom   16 type  2   force =     0.00000018    0.00000018   -0.00000020
     atom   17 type  1   force =     0.00000000    0.00000000   -0.00330454
     atom   18 type  1   force =     0.00000000    0.00000000    0.00330454
     atom   19 type  1   force =     0.00000000   -0.00330461   -0.00000000
     atom   20 type  1   force =     0.00000000    0.00330461    0.00000000
     atom   21 type  1   force =    -0.00330454   -0.00000000    0.00000000
     atom   22 type  1   force =     0.00330528    0.00000000    0.00000000
     atom   23 type  1   force =     0.00000014    0.00000014    0.00330482
     atom   24 type  1   force =     0.00000078    0.00000078   -0.00330489
     atom   25 type  1   force =     0.00000014    0.00330482    0.00000014
     atom   26 type  1   force =     0.00000078   -0.00330489    0.00000078
     atom   27 type  1   force =     0.00330482    0.00000014    0.00000014
     atom   28 type  1   force =    -0.00330482    0.00000014   -0.00000014
     atom   29 type  1   force =     0.00000000   -0.00000000   -0.00330461
     atom   30 type  1   force =     0.00000000    0.00000000    0.00330461
     atom   31 type  1   force =     0.00000000   -0.00330454    0.00000000
     atom   32 type  1   force =     0.00000000    0.00330454    0.00000000
     atom   33 type  1   force =    -0.00330454    0.00000000    0.00000000
     atom   34 type  1   force =     0.00330461    0.00000000    0.00000000
     atom   35 type  1   force =     0.00000078   -0.00000078    0.00330489
     atom   36 type  1   force =     0.00000014   -0.00000014   -0.00330482
     atom   37 type  1   force =     0.00000078    0.00330489   -0.00000078
     atom   38 type  1   force =     0.00000014   -0.00330482   -0.00000014
     atom   39 type  1   force =     0.00330482   -0.00000014   -0.00000014
     atom   40 type  1   force =    -0.00330482   -0.00000014    0.00000014
     atom   41 type  1   force =     0.00000000    0.00000000   -0.00330528
     atom   42 type  1   force =     0.00000000    0.00000000    0.00330528
     atom   43 type  1   force =     0.00000000   -0.00330528    0.00000000
     atom   44 type  1   force =     0.00000000    0.00330528    0.00000000
     atom   45 type  1   force =    -0.00330528   -0.00000000    0.00000000
     atom   46 type  1   force =     0.00330454    0.00000000    0.00000000
     atom   47 type  1   force =    -0.00000078    0.00000078    0.00330489
     atom   48 type  1   force =    -0.00000014    0.00000014   -0.00330482
     atom   49 type  1   force =    -0.00000014    0.00330482   -0.00000014
     atom   50 type  1   force =    -0.00000078   -0.00330489   -0.00000078
     atom   51 type  1   force =     0.00330489    0.00000078   -0.00000078
     atom   52 type  1   force =    -0.00330489    0.00000078    0.00000078
     atom   53 type  1   force =     0.00000000    0.00000000   -0.00330454
     atom   54 type  1   force =     0.00000000    0.00000000    0.00330454
     atom   55 type  1   force =     0.00000000   -0.00330454    0.00000000
     atom   56 type  1   force =     0.00000000    0.00330454    0.00000000
     atom   57 type  1   force =    -0.00330461   -0.00000000    0.00000000
     atom   58 type  1   force =     0.00330454    0.00000000    0.00000000
     atom   59 type  1   force =    -0.00000014   -0.00000014    0.00330482
     atom   60 type  1   force =    -0.00000078   -0.00000078   -0.00330489
     atom   61 type  1   force =    -0.00000078    0.00330489    0.00000078
     atom   62 type  1   force =    -0.00000014   -0.00330482    0.00000014
     atom   63 type  1   force =     0.00330489   -0.00000078    0.00000078
     atom   64 type  1   force =    -0.00330489   -0.00000078   -0.00000078

     Total force =     0.022896     Total SCF correction =     0.000012


     Computing stress (Cartesian axis) and pressure

          total   stress  (Ry/bohr**3)                   (kbar)     P=       17.45
   0.00011864   0.00000000   0.00000000           17.45        0.00        0.00
   0.00000000   0.00011864   0.00000000            0.00       17.45        0.00
   0.00000000   0.00000000   0.00011864            0.00        0.00       17.45


     BFGS Geometry Optimization
     Energy error            =      0.0E+00 Ry
     Gradient error          =      3.3E-03 Ry/Bohr
     Cell gradient error     =      1.7E+01 kbar

     number of scf cycles    =   1
     number of bfgs steps    =   0

     enthalpy           new  =    -688.0884622059 Ry

     new trust radius        =       0.0414603433 bohr
     new conv_thr            =       0.0000000100 Ry

     new unit-cell volume =   4928.28409 a.u.^3 (   730.29636 Ang^3 )
     density =      1.09155 g/cm^3

CELL_PARAMETERS (alat= 16.96728396)
   1.002966091   0.000000000   0.000000000
   0.000000000   1.002966091   0.000000000
   0.000000000   0.000000000   1.002966091

ATOMIC_POSITIONS (crystal)
Al            0.1249999881        0.3749999893        0.3749999893
Al            0.3749999893        0.1249999881        0.3749999893
Al            0.3749999893        0.8750000119        0.6250000107
Al            0.1249999940        0.1249999940        0.1249999940
Al            0.1249999940        0.8750000060        0.8750000060
Al            0.3749999893        0.6250000107        0.8750000119
Al            0.3749999893        0.3749999893        0.1249999881
Al            0.1249999881        0.6250000107        0.6250000107
Al            0.6250000107        0.3749999893        0.8750000119
Al            0.8750000060        0.1249999940        0.8750000060
Al            0.8750000060        0.8750000060        0.1249999940
Al            0.6250000107        0.1249999881        0.6250000107
Al            0.6250000107        0.8750000119        0.3749999893
Al            0.8750000119        0.6250000107        0.3749999893
Al            0.8750000119        0.3749999893        0.6250000107
Al            0.6250000107        0.6250000107        0.1249999881
H             0.5000000000        0.0000000000        0.3048956503
H             0.5000000000        0.0000000000        0.6951043497
H             0.5000000000        0.8048956462        0.5000000000
H             0.5000000000        0.1951043538        0.5000000000
H             0.3048956503       -0.0000000000        0.5000000000
H             0.1951043930        0.0000000000        0.0000000000
H             0.2500000085        0.2500000085        0.4451043659
H             0.2500000458        0.2500000458        0.0548956297
H             0.2500000085        0.4451043659        0.2500000085
H             0.2500000458        0.0548956297        0.2500000458
H             0.4451043659        0.2500000085        0.2500000085
H             0.5548956341        0.2500000085        0.7499999915
H             0.5000000000        0.5000000000        0.8048956462
H             0.5000000000        0.5000000000        0.1951043538
H             0.5000000000        0.3048956503        0.0000000000
H             0.5000000000        0.6951043497        0.0000000000
H             0.3048956503        0.5000000000        0.0000000000
H             0.1951043538        0.5000000000        0.5000000000
H             0.2500000458        0.7499999542        0.9451043703
H             0.2500000085        0.7499999915        0.5548956341
H             0.2500000458        0.9451043703        0.7499999542
H             0.2500000085        0.5548956341        0.7499999915
H             0.4451043659        0.7499999915        0.7499999915
H             0.5548956341        0.7499999915        0.2500000085
H             0.0000000000        0.0000000000        0.8048956070
H             0.0000000000        0.0000000000        0.1951043930
H             0.0000000000        0.8048956070        0.0000000000
H             0.0000000000        0.1951043930        0.0000000000
H             0.8048956070       -0.0000000000        0.0000000000
H             0.6951043497        0.0000000000        0.5000000000
H             0.7499999542        0.2500000458        0.9451043703
H             0.7499999915        0.2500000085        0.5548956341
H             0.7499999915        0.4451043659        0.7499999915
H             0.7499999542        0.0548956297        0.7499999542
H             0.9451043703        0.2500000458        0.7499999542
H             0.0548956297        0.2500000458        0.2500000458
H             0.0000000000        0.5000000000        0.3048956503
H             0.0000000000        0.5000000000        0.6951043497
H             0.0000000000        0.3048956503        0.5000000000
H             0.0000000000        0.6951043497        0.5000000000
H             0.8048956462        0.5000000000        0.5000000000
H             0.6951043497        0.5000000000        0.0000000000
H             0.7499999915        0.7499999915        0.4451043659
H             0.7499999542        0.7499999542        0.0548956297
H             0.7499999542        0.9451043703        0.2500000458
H             0.7499999915        0.5548956341        0.2500000085
H             0.9451043703        0.7499999542        0.2500000458
H             0.0548956297        0.7499999542        0.7499999542



     Writing config-only to output data dir ./AlH3.save/
     NEW-OLD atomic charge density approx. for the potential
     extrapolated charge   96.84886, renormalised to   96.00000

     total cpu time spent up to now is      111.3 secs

     Self-consistent Calculation

     iteration #  1     ecut=    70.00 Ry     beta= 0.70
     Davidson diagonalization with overlap
     c_bands:  1 eigenvalues not converged
     ethr =  1.00E-06,  avg # of iterations =  4.0

     total cpu time spent up to now is      121.1 secs

     total energy              =    -688.09115753 Ry
     estimated scf accuracy    <       0.00131835 Ry

     iteration #  2     ecut=    70.00 Ry     beta= 0.70
     Davidson diagonalization with overlap
     ethr =  1.37E-06,  avg # of iterations =  6.7

     total cpu time spent up to now is      131.4 secs

     total energy              =    -688.09327623 Ry
     estimated scf accuracy    <       0.00117554 Ry

     iteration #  3     ecut=    70.00 Ry     beta= 0.70
     Davidson diagonalization with overlap
     ethr =  1.22E-06,  avg # of iterations =  1.0

     total cpu time spent up to now is      137.7 secs

     total energy              =    -688.09317100 Ry
     estimated scf accuracy    <       0.00027798 Ry

     iteration #  4     ecut=    70.00 Ry     beta= 0.70
     Davidson diagonalization with overlap
     ethr =  2.90E-07,  avg # of iterations =  2.0

     total cpu time spent up to now is      145.8 secs

     total energy              =    -688.09322372 Ry
     estimated scf accuracy    <       0.00000227 Ry

     iteration #  5     ecut=    70.00 Ry     beta= 0.70
     Davidson diagonalization with overlap
     ethr =  2.36E-09,  avg # of iterations =  5.0

     total cpu time spent up to now is      155.8 secs

     total energy              =    -688.09322368 Ry
     estimated scf accuracy    <       0.00000397 Ry

     iteration #  6     ecut=    70.00 Ry     beta= 0.70
     Davidson diagonalization with overlap
     ethr =  2.36E-09,  avg # of iterations =  2.0

     total cpu time spent up to now is      164.0 secs

     total energy              =    -688.09322440 Ry
     estimated scf accuracy    <       0.00000001 Ry

     iteration #  7     ecut=    70.00 Ry     beta= 0.70
     Davidson diagonalization with overlap
     ethr =  1.28E-11,  avg # of iterations =  5.2

     total cpu time spent up to now is      175.1 secs

     End of self-consistent calculation

          k = 0.0000 0.0000 0.0000 ( 48489 PWs)   bands (ev):

    -9.1464  -7.9169  -7.9169  -7.9169  -7.9169  -7.9169  -7.9169  -5.9023
    -5.9023  -5.9023  -5.9023  -5.9023  -5.9023  -4.9794  -4.9794  -4.9794
    -4.8853  -4.1653  -4.1653  -4.1653  -4.1653  -4.1653  -4.1653  -4.0744
    -4.0744  -4.0744  -3.6612  -3.6612  -2.3631  -2.3631  -2.3631  -2.3631
    -2.3631  -2.3631  -2.2034  -2.2034  -2.2034  -2.2034  -2.2034  -2.2034
    -1.5010  -1.5010  -1.5010  -1.5010  -1.5010  -1.5010  -0.2204  -0.2204
     2.9734   2.9734   2.9734   2.9734   2.9734   2.9734   3.3251   4.7377
     4.7377   4.7377

          k = 0.0000 0.0000 0.1424 ( 48313 PWs)   bands (ev):

    -9.1202  -8.2325  -7.9150  -7.9150  -7.9150  -7.9150  -7.5627  -5.9219
    -5.9219  -5.9219  -5.9219  -5.8758  -5.8758  -5.3922  -5.0833  -5.0833
    -4.5159  -4.1710  -4.1480  -4.0954  -4.0954  -4.0954  -4.0954  -4.0808
    -3.9339  -3.9339  -3.6334  -3.6230  -2.6931  -2.5320  -2.5320  -2.5320
    -2.5320  -2.2925  -2.2925  -2.1322  -2.1322  -2.1322  -2.1322  -1.9987
    -1.8843  -1.4609  -1.4609  -1.4609  -1.4609  -1.1572  -0.3004  -0.2440
     3.0231   3.0231   3.0231   3.0231   3.1011   3.1011   3.3897   4.7575
     4.7618   4.7618

          k = 0.0000 0.0000 0.2849 ( 48309 PWs)   bands (ev):

    -9.0420  -8.5055  -7.9106  -7.9106  -7.9106  -7.9106  -7.1740  -5.9637
    -5.9637  -5.9637  -5.9637  -5.8566  -5.7972  -5.7972  -5.2890  -5.2890
    -4.2287  -4.1640  -4.1243  -4.0984  -3.9107  -3.9107  -3.9107  -3.9107
    -3.6216  -3.6216  -3.5503  -3.4599  -2.9812  -2.8199  -2.8199  -2.8199
    -2.8199  -2.5339  -2.5339  -2.2958  -2.0811  -2.0811  -2.0811  -2.0811
    -1.6113  -1.3842  -1.3842  -1.3842  -1.3842  -0.8621  -0.5218  -0.3162
     3.1481   3.1481   3.1481   3.1481   3.4566   3.4566   3.5801   4.7556
     4.7939   4.7939

          k = 0.0000 0.0000 0.4273 ( 48310 PWs)   bands (ev):

    -8.9125  -8.7330  -7.9070  -7.9070  -7.9070  -7.9070  -6.7560  -6.3145
    -5.9951  -5.9951  -5.9951  -5.9951  -5.6687  -5.6687  -5.4953  -5.4953
    -4.1462  -4.1223  -4.1186  -4.1057  -3.6915  -3.6915  -3.6915  -3.6915
    -3.4128  -3.2493  -3.2493  -3.2223  -3.1310  -3.0920  -3.0920  -3.0920
    -3.0920  -2.8713  -2.8713  -2.7206  -2.0623  -2.0623  -2.0623  -2.0623
    -1.3325  -1.3325  -1.3325  -1.3325  -1.2175  -0.8425  -0.6225  -0.4410
     3.2672   3.2672   3.2672   3.2672   3.8857   3.9740   3.9740   4.2880
     4.5401   4.5401

          k = 0.0000 0.1424 0.1424 ( 48302 PWs)   bands (ev):

    -9.0944  -8.2221  -8.2221  -7.9767  -7.8499  -7.5728  -7.5728  -5.9961
    -5.9054  -5.9054  -5.8833  -5.8833  -5.8660  -5.6255  -5.1724  -5.0418
    -4.4944  -4.1627  -4.0959  -4.0959  -4.0856  -4.0856  -4.0292  -3.9106
    -3.8663  -3.8183  -3.5990  -3.5439  -2.8207  -2.8207  -2.6837  -2.4524
    -2.4420  -2.3952  -2.3952  -2.3261  -2.3261  -1.9601  -1.9601  -1.8822
    -1.7522  -1.7522  -1.5716  -1.3351  -1.1733  -1.1733  -0.3530  -0.2946
     3.0404   3.1104   3.1396   3.1396   3.1536   3.1536   3.4533   4.6651
     4.7823   4.9059

          k = 0.0000 0.1424 0.2849 ( 48333 PWs)   bands (ev):

    -9.0172  -8.4893  -8.1926  -8.0364  -7.7815  -7.6030  -7.2017  -6.0526
    -6.0035  -5.9727  -5.8945  -5.8528  -5.8355  -5.7889  -5.3588  -5.2110
    -4.3011  -4.0918  -4.0853  -4.0737  -4.0211  -3.9266  -3.8966  -3.6944
    -3.6580  -3.5993  -3.4950  -3.2441  -3.1029  -3.0873  -2.9039  -2.7901
    -2.6321  -2.6246  -2.5648  -2.4001  -2.3505  -2.0736  -1.9063  -1.7983
    -1.6323  -1.5384  -1.5347  -1.2594  -1.2203  -0.9038  -0.5647  -0.3755
     3.1464   3.2447   3.2699   3.2702   3.4815   3.4977   3.6404   4.6252
     4.7930   4.9405

          k = 0.0000 0.1424 0.4273 ( 48328 PWs)   bands (ev):

    -8.8894  -8.7128  -8.1482  -8.0944  -7.7133  -7.6514  -6.8094  -6.4057
    -6.0679  -6.0369  -5.8916  -5.8714  -5.7155  -5.6397  -5.5519  -5.4406
    -4.1349  -4.0768  -4.0654  -4.0411  -3.9189  -3.7988  -3.6340  -3.5546
    -3.4665  -3.3512  -3.2853  -3.2665  -3.2451  -3.1089  -3.0792  -2.9773
    -2.9021  -2.8805  -2.8473  -2.4444  -2.3762  -2.3626  -1.8658  -1.8299
    -1.4064  -1.3603  -1.2971  -1.2652  -1.2534  -0.8831  -0.6752  -0.4988
     3.2806   3.3403   3.3687   3.3969   3.9395   3.9825   3.9880   4.3298
     4.4884   4.5180

          k = 0.0000 0.2849 0.2849 ( 48298 PWs)   bands (ev):

    -8.9431  -8.4420  -8.4420  -8.1576  -7.6496  -7.2783  -7.2783  -6.2912
    -6.0943  -5.9246  -5.9246  -5.7650  -5.7650  -5.7611  -5.5144  -5.2006
    -4.3312  -4.1597  -3.9621  -3.9621  -3.8959  -3.8790  -3.8790  -3.6671
    -3.4812  -3.4319  -3.3789  -3.3330  -3.3330  -3.0562  -2.8681  -2.8593
    -2.6792  -2.6792  -2.6616  -2.6616  -2.6488  -1.7604  -1.7604  -1.7217
    -1.6872  -1.6872  -1.5018  -1.2255  -1.0099  -1.0099  -0.7290  -0.4985
     3.2486   3.4881   3.5551   3.5551   3.5656   3.5656   3.8169   4.5206
     4.6632   4.7127

          k = 0.0000 0.2849 0.4273 ( 48350 PWs)   bands (ev):

    -8.8209  -8.6528  -8.3670  -8.2700  -7.5165  -7.3888  -6.9457  -6.6134
    -6.0808  -6.0179  -5.8249  -5.7348  -5.7232  -5.6824  -5.5812  -5.3675
    -4.2022  -4.0950  -4.0508  -3.9607  -3.8606  -3.8538  -3.6053  -3.6052
    -3.5090  -3.3697  -3.3320  -3.2698  -3.2187  -3.1413  -3.0604  -3.0035
    -2.9073  -2.8315  -2.6930  -2.6924  -2.4552  -2.0767  -1.7669  -1.7467
    -1.4907  -1.3646  -1.3130  -1.3046  -1.1495  -1.0205  -0.8046  -0.6348
     3.4092   3.5446   3.6571   3.6750   3.9685   4.0175   4.0949   4.4040
     4.4211   4.4559

          k = 0.0000 0.4273 0.4273 ( 48268 PWs)   bands (ev):

    -8.7087  -8.5559  -8.5559  -8.4262  -7.3187  -7.1243  -7.1243  -6.8627
    -6.0359  -5.9438  -5.9438  -5.8255  -5.5993  -5.5513  -5.5513  -5.4017
    -4.2248  -4.1719  -4.1266  -4.1266  -3.6809  -3.6080  -3.6080  -3.5153
    -3.4327  -3.4327  -3.3956  -3.2444  -3.1942  -3.1240  -3.0065  -2.9928
    -2.9928  -2.9497  -2.9497  -2.9192  -2.0718  -1.7377  -1.7377  -1.6979
    -1.5363  -1.5363  -1.4689  -1.2600  -1.1338  -0.9624  -0.9624  -0.7911
     3.6131   3.8297   3.8297   4.0353   4.0910   4.0910   4.1317   4.3680
     4.3844   4.4005

          k = 0.1424 0.1424 0.1424 ( 48281 PWs)   bands (ev):

    -9.0689  -8.2178  -8.2178  -8.2178  -7.5778  -7.5778  -7.5778  -5.9635
    -5.9635  -5.9635  -5.8407  -5.8407  -5.8407  -5.8075  -5.1222  -5.1222
    -4.5140  -4.1578  -4.1578  -4.1578  -3.9518  -3.9518  -3.9094  -3.9094
    -3.9094  -3.5686  -3.5322  -3.5322  -2.8931  -2.8931  -2.8931  -2.5714
    -2.5714  -2.5714  -2.2971  -2.2971  -2.2971  -1.8712  -1.8712  -1.8712
    -1.7234  -1.7234  -1.7234  -1.1812  -1.1812  -1.1812  -0.3753  -0.3753
     3.1515   3.1515   3.1515   3.2372   3.2372   3.2372   3.5156   4.5748
     4.9274   4.9274

          k = 0.1424 0.1424 0.2849 ( 48351 PWs)   bands (ev):

    -8.9928  -8.4757  -8.2078  -8.2078  -7.5894  -7.5894  -7.2285  -6.1360
    -6.0176  -6.0176  -5.8659  -5.8241  -5.8241  -5.7658  -5.2965  -5.2527
    -4.3706  -4.1458  -4.0904  -4.0904  -3.9825  -3.9108  -3.7944  -3.6701
    -3.6701  -3.5072  -3.3275  -3.1747  -3.1667  -3.1077  -3.1077  -2.8487
    -2.7511  -2.7511  -2.3886  -2.3811  -2.3811  -2.0026  -1.7967  -1.7967
    -1.6440  -1.5837  -1.5837  -1.2106  -1.2106  -0.9467  -0.5981  -0.4438
     3.2332   3.2332   3.3909   3.3909   3.4592   3.5893   3.6983   4.4932
     4.9131   4.9139

          k = 0.1424 0.1424 0.4273 ( 48306 PWs)   bands (ev):

    -8.8672  -8.6939  -8.1994  -8.1994  -7.5992  -7.5992  -6.8636  -6.4954
    -6.0445  -6.0445  -5.8289  -5.8289  -5.7051  -5.6442  -5.4896  -5.4827
    -4.1891  -4.1386  -3.9747  -3.9376  -3.9376  -3.9308  -3.6166  -3.5548
    -3.5548  -3.4101  -3.3982  -3.1962  -3.1962  -3.1604  -3.0201  -2.9692
    -2.9692  -2.7591  -2.6813  -2.4422  -2.4422  -2.3574  -1.7817  -1.7817
    -1.4298  -1.4298  -1.2841  -1.2667  -1.2667  -0.9177  -0.7318  -0.5621
     3.3311   3.3311   3.5065   3.5065   3.8972   3.9870   4.0988   4.3278
     4.3604   4.6568

          k = 0.1424 0.2849 0.2849 ( 48291 PWs)   bands (ev):

    -8.9204  -8.4369  -8.4369  -8.2507  -7.5476  -7.2989  -7.2989  -6.4002
    -6.0439  -5.9178  -5.9178  -5.7398  -5.7360  -5.7360  -5.4256  -5.2375
    -4.4018  -4.1599  -4.0925  -4.0925  -3.9146  -3.8155  -3.7209  -3.7209
    -3.4347  -3.3424  -3.3424  -3.3143  -3.2465  -3.2188  -2.9434  -2.9434
    -2.9159  -2.8331  -2.4801  -2.4016  -2.4016  -1.7861  -1.7861  -1.7014
    -1.6635  -1.6635  -1.5569  -1.2315  -1.0559  -1.0559  -0.7473  -0.5806
     3.2972   3.4745   3.4745   3.6114   3.7246   3.7246   3.8646   4.3562
     4.7005   4.7369

          k = 0.1424 0.2849 0.4273 ( 48321 PWs)   bands (ev):

    -8.8013  -8.6385  -8.3789  -8.3123  -7.4784  -7.3899  -6.9968  -6.6949
    -6.0262  -5.9769  -5.7709  -5.7096  -5.7018  -5.6001  -5.5855  -5.3897
    -4.2628  -4.1301  -4.1040  -4.0181  -3.8886  -3.8215  -3.6971  -3.6778
    -3.5281  -3.5097  -3.3113  -3.2578  -3.2403  -3.1519  -2.9608  -2.9607
    -2.9572  -2.6406  -2.5766  -2.5194  -2.4386  -2.0714  -1.7315  -1.7262
    -1.5146  -1.3880  -1.3810  -1.3133  -1.1977  -1.0403  -0.8709  -0.7110
     3.4043   3.4774   3.7961   3.8123   3.8126   4.0711   4.2045   4.2227
     4.4530   4.6268

          k = 0.1424 0.4273 0.4273 ( 48312 PWs)   bands (ev):

    -8.6942  -8.5506  -8.5505  -8.4375  -7.3271  -7.1613  -7.1613  -6.9265
    -5.9648  -5.8718  -5.8718  -5.7397  -5.5867  -5.5452  -5.5452  -5.4065
    -4.2686  -4.1860  -4.1598  -4.1598  -3.7677  -3.7278  -3.7278  -3.6878
    -3.5252  -3.5099  -3.5099  -3.4719  -3.0449  -2.9922  -2.9922  -2.9136
    -2.8110  -2.7536  -2.6907  -2.6907  -2.0751  -1.7596  -1.7596  -1.6883
    -1.5314  -1.5314  -1.4867  -1.2694  -1.2085  -1.0368  -1.0368  -0.8724
     3.5420   3.6957   3.6957   3.9290   4.1495   4.2539   4.2540   4.3787
     4.5015   4.5559

          k = 0.2849 0.2849 0.2849 ( 48317 PWs)   bands (ev):

    -8.8531  -8.4251  -8.4251  -8.4251  -7.3436  -7.3436  -7.3436  -6.6247
    -5.8994  -5.8994  -5.8994  -5.6775  -5.6774  -5.6774  -5.3341  -5.3341
    -4.4887  -4.1684  -4.1684  -4.1684  -3.9050  -3.9050  -3.6079  -3.6079
    -3.6079  -3.4609  -3.4609  -3.4609  -3.0464  -3.0464  -2.9801  -2.9801
    -2.9801  -2.6604  -2.3022  -2.3022  -2.3022  -1.7697  -1.7697  -1.7697
    -1.6157  -1.6157  -1.6157  -1.1737  -1.1737  -1.1737  -0.8040  -0.8040
     3.4381   3.4381   3.4381   3.9503   3.9503   3.9503   3.9652   4.2100
     4.6514   4.6514

          k = 0.2849 0.2849 0.4273 ( 48267 PWs)   bands (ev):

    -8.7439  -8.5978  -8.4152  -8.4152  -7.3782  -7.3782  -7.1130  -6.8710
    -5.8820  -5.8820  -5.6841  -5.6374  -5.6374  -5.5798  -5.4585  -5.4522
    -4.3843  -4.2252  -4.1487  -4.1487  -3.9158  -3.8223  -3.8192  -3.7254
    -3.7254  -3.6698  -3.4966  -3.4966  -3.0090  -3.0034  -2.8117  -2.8117
    -2.7234  -2.4226  -2.4059  -2.4059  -2.3293  -2.0043  -1.7130  -1.7130
    -1.5062  -1.5062  -1.4347  -1.3252  -1.3252  -1.1139  -1.0363  -0.9018
     3.4278   3.4278   3.6522   3.8808   4.1177   4.1177   4.2850   4.4282
     4.4546   4.6285

          k = 0.2849 0.4273 0.4273 ( 48268 PWs)   bands (ev):

    -8.6532  -8.5382  -8.5382  -8.4722  -7.3292  -7.2359  -7.2359  -7.0624
    -5.7826  -5.7054  -5.7054  -5.5603  -5.5518  -5.5297  -5.5297  -5.4237
    -4.4023  -4.2709  -4.2709  -4.2510  -3.8793  -3.8574  -3.8460  -3.8460
    -3.7468  -3.7255  -3.7255  -3.7177  -2.7518  -2.7346  -2.7346  -2.6214
    -2.5986  -2.4733  -2.4231  -2.4231  -2.0708  -1.8138  -1.8138  -1.7133
    -1.5205  -1.5205  -1.4924  -1.3880  -1.2997  -1.2258  -1.2258  -1.0871
     3.4403   3.5206   3.5206   3.6818   4.3626   4.4472   4.4473   4.4536
     4.4942   4.5556

          k = 0.4273 0.4273 0.4273 ( 48290 PWs)   bands (ev):

    -8.5934  -8.5278  -8.5278  -8.5278  -7.2897  -7.2897  -7.2897  -7.1963
    -5.5676  -5.5676  -5.5676  -5.5041  -5.5041  -5.5041  -5.4574  -5.4574
    -4.5003  -4.4014  -4.4014  -4.4014  -3.9155  -3.9155  -3.8920  -3.8920
    -3.8920  -3.8582  -3.8582  -3.8582  -2.4671  -2.4671  -2.4671  -2.4517
    -2.4517  -2.3068  -2.3068  -2.3068  -1.9988  -1.8414  -1.8414  -1.8414
    -1.5067  -1.5067  -1.5067  -1.4301  -1.4301  -1.4301  -1.3549  -1.3549
     3.4172   3.4172   3.4172   3.5015   4.3179   4.3522   4.3522   4.3522
     4.8332   4.8332

     the Fermi energy is     1.7589 ev

!    total energy              =    -688.09322442 Ry
     estimated scf accuracy    <          3.6E-09 Ry
     smearing contrib. (-TS)   =       0.00000000 Ry
     internal energy E=F+TS    =    -688.09322442 Ry

     The total energy is F=E-TS. E is the sum of the following terms:
     one-electron contribution =     -25.38307457 Ry
     hartree contribution      =      39.99882830 Ry
     xc contribution           =     -76.16921838 Ry
     ewald contribution        =     -71.80991954 Ry
     one-center paw contrib.   =    -554.72984023 Ry

     convergence has been achieved in   7 iterations

     Forces acting on atoms (cartesian axes, Ry/au):

     atom    1 type  2   force =     0.00000001   -0.00000001   -0.00000001
     atom    2 type  2   force =    -0.00000001    0.00000001   -0.00000001
     atom    3 type  2   force =    -0.00000001   -0.00000001    0.00000001
     atom    4 type  2   force =    -0.00000003   -0.00000003   -0.00000003
     atom    5 type  2   force =    -0.00000003    0.00000003    0.00000003
     atom    6 type  2   force =    -0.00000001    0.00000001   -0.00000001
     atom    7 type  2   force =    -0.00000001   -0.00000001    0.00000001
     atom    8 type  2   force =     0.00000001    0.00000001    0.00000001
     atom    9 type  2   force =     0.00000001   -0.00000001   -0.00000001
     atom   10 type  2   force =     0.00000003   -0.00000003    0.00000003
     atom   11 type  2   force =     0.00000003    0.00000003   -0.00000003
     atom   12 type  2   force =     0.00000001    0.00000001    0.00000001
     atom   13 type  2   force =     0.00000001   -0.00000001   -0.00000001
     atom   14 type  2   force =    -0.00000001    0.00000001   -0.00000001
     atom   15 type  2   force =    -0.00000001   -0.00000001    0.00000001
     atom   16 type  2   force =     0.00000001    0.00000001    0.00000001
     atom   17 type  1   force =    -0.00000000    0.00000000   -0.00198555
     atom   18 type  1   force =    -0.00000000    0.00000000    0.00198555
     atom   19 type  1   force =     0.00000000   -0.00198557    0.00000000
     atom   20 type  1   force =    -0.00000000    0.00198557    0.00000000
     atom   21 type  1   force =    -0.00198555   -0.00000000    0.00000000
     atom   22 type  1   force =     0.00198572    0.00000000    0.00000000
     atom   23 type  1   force =     0.00000004    0.00000004    0.00198565
     atom   24 type  1   force =    -0.00000001   -0.00000001   -0.00198561
     atom   25 type  1   force =     0.00000004    0.00198565    0.00000004
     atom   26 type  1   force =    -0.00000001   -0.00198561   -0.00000001
     atom   27 type  1   force =     0.00198565    0.00000004    0.00000004
     atom   28 type  1   force =    -0.00198565    0.00000004   -0.00000004
     atom   29 type  1   force =     0.00000000    0.00000000   -0.00198557
     atom   30 type  1   force =     0.00000000    0.00000000    0.00198557
     atom   31 type  1   force =     0.00000000   -0.00198555    0.00000000
     atom   32 type  1   force =     0.00000000    0.00198555    0.00000000
     atom   33 type  1   force =    -0.00198555    0.00000000   -0.00000000
     atom   34 type  1   force =     0.00198557   -0.00000000   -0.00000000
     atom   35 type  1   force =    -0.00000001    0.00000001    0.00198561
     atom   36 type  1   force =     0.00000004   -0.00000004   -0.00198565
     atom   37 type  1   force =    -0.00000001    0.00198561    0.00000001
     atom   38 type  1   force =     0.00000004   -0.00198565   -0.00000004
     atom   39 type  1   force =     0.00198565   -0.00000004   -0.00000004
     atom   40 type  1   force =    -0.00198565   -0.00000004    0.00000004
     atom   41 type  1   force =     0.00000000    0.00000000   -0.00198572
     atom   42 type  1   force =    -0.00000000    0.00000000    0.00198572
     atom   43 type  1   force =     0.00000000   -0.00198572    0.00000000
     atom   44 type  1   force =     0.00000000    0.00198572    0.00000000
     atom   45 type  1   force =    -0.00198572   -0.00000000    0.00000000
     atom   46 type  1   force =     0.00198555    0.00000000    0.00000000
     atom   47 type  1   force =     0.00000001   -0.00000001    0.00198561
     atom   48 type  1   force =    -0.00000004    0.00000004   -0.00198565
     atom   49 type  1   force =    -0.00000004    0.00198565   -0.00000004
     atom   50 type  1   force =     0.00000001   -0.00198561    0.00000001
     atom   51 type  1   force =     0.00198561   -0.00000001    0.00000001
     atom   52 type  1   force =    -0.00198561   -0.00000001   -0.00000001
     atom   53 type  1   force =     0.00000000    0.00000000   -0.00198555
     atom   54 type  1   force =     0.00000000    0.00000000    0.00198555
     atom   55 type  1   force =    -0.00000000   -0.00198555    0.00000000
     atom   56 type  1   force =     0.00000000    0.00198555    0.00000000
     atom   57 type  1   force =    -0.00198557    0.00000000    0.00000000
     atom   58 type  1   force =     0.00198555   -0.00000000    0.00000000
     atom   59 type  1   force =    -0.00000004   -0.00000004    0.00198565
     atom   60 type  1   force =     0.00000001    0.00000001   -0.00198561
     atom   61 type  1   force =     0.00000001    0.00198561   -0.00000001
     atom   62 type  1   force =    -0.00000004   -0.00198565    0.00000004
     atom   63 type  1   force =     0.00198561    0.00000001   -0.00000001
     atom   64 type  1   force =    -0.00198561    0.00000001    0.00000001

     Total force =     0.013757     Total SCF correction =     0.000008


     Computing stress (Cartesian axis) and pressure

          total   stress  (Ry/bohr**3)                   (kbar)     P=       11.89
   0.00008086   0.00000000   0.00000000           11.89        0.00        0.00
   0.00000000   0.00008086   0.00000000            0.00       11.89        0.00
   0.00000000   0.00000000   0.00008086            0.00        0.00       11.89

     Energy error            =      4.8E-03 Ry
     Gradient error          =      2.0E-03 Ry/Bohr
     Cell gradient error     =      1.2E+01 kbar

     number of scf cycles    =   2
     number of bfgs steps    =   1

     enthalpy           old  =    -688.0884622059 Ry
     enthalpy           new  =    -688.0932244174 Ry

     CASE: enthalpy          _new < enthalpy          _old

     new trust radius        =       0.0456739639 bohr
     new conv_thr            =       0.0000000002 Ry

     new unit-cell volume =   4976.53659 a.u.^3 (   737.44664 Ang^3 )
     density =      1.08096 g/cm^3

CELL_PARAMETERS (alat= 16.96728396)
   1.006228790   0.000000000   0.000000000
   0.000000000   1.006228790   0.000000000
   0.000000000   0.000000000   1.006228790

ATOMIC_POSITIONS (crystal)
Al            0.1249999894        0.3749999886        0.3749999886
Al            0.3749999886        0.1249999894        0.3749999886
Al            0.3749999886        0.8750000106        0.6250000114
Al            0.1249999912        0.1249999912        0.1249999912
Al            0.1249999912        0.8750000088        0.8750000088
Al            0.3749999886        0.6250000114        0.8750000106
Al            0.3749999886        0.3749999886        0.1249999894
Al            0.1249999894        0.6250000114        0.6250000114
Al            0.6250000114        0.3749999886        0.8750000106
Al            0.8750000088        0.1249999912        0.8750000088
Al            0.8750000088        0.8750000088        0.1249999912
Al            0.6250000114        0.1249999894        0.6250000114
Al            0.6250000114        0.8750000106        0.3749999886
Al            0.8750000106        0.6250000114        0.3749999886
Al            0.8750000106        0.3749999886        0.6250000114
Al            0.6250000114        0.6250000114        0.1249999894
H             0.5000000000        0.0000000000        0.3047072649
H             0.5000000000        0.0000000000        0.6952927351
H             0.5000000000        0.8047072593        0.5000000000
H             0.5000000000        0.1952927407        0.5000000000
H             0.3047072649       -0.0000000000        0.5000000000
H             0.1952927944        0.0000000000        0.0000000000
H             0.2500000120        0.2500000120        0.4452927604
H             0.2500000450        0.2500000450        0.0547072393
H             0.2500000120        0.4452927604        0.2500000120
H             0.2500000450        0.0547072393        0.2500000450
H             0.4452927604        0.2500000120        0.2500000120
H             0.5547072396        0.2500000120        0.7499999880
H             0.5000000000        0.5000000000        0.8047072593
H             0.5000000000        0.5000000000        0.1952927407
H             0.5000000000        0.3047072649        0.0000000000
H             0.5000000000        0.6952927351        0.0000000000
H             0.3047072649        0.5000000000       -0.0000000000
H             0.1952927407        0.5000000000        0.5000000000
H             0.2500000450        0.7499999550        0.9452927607
H             0.2500000120        0.7499999880        0.5547072396
H             0.2500000450        0.9452927607        0.7499999550
H             0.2500000120        0.5547072396        0.7499999880
H             0.4452927604        0.7499999880        0.7499999880
H             0.5547072396        0.7499999880        0.2500000120
H             0.0000000000        0.0000000000        0.8047072056
H            -0.0000000000        0.0000000000        0.1952927944
H             0.0000000000        0.8047072056        0.0000000000
H             0.0000000000        0.1952927944        0.0000000000
H             0.8047072056       -0.0000000000        0.0000000000
H             0.6952927351        0.0000000000        0.5000000000
H             0.7499999550        0.2500000450        0.9452927607
H             0.7499999880        0.2500000120        0.5547072396
H             0.7499999880        0.4452927604        0.7499999880
H             0.7499999550        0.0547072393        0.7499999550
H             0.9452927607        0.2500000450        0.7499999550
H             0.0547072393        0.2500000450        0.2500000450
H             0.0000000000        0.5000000000        0.3047072649
H             0.0000000000        0.5000000000        0.6952927351
H            -0.0000000000        0.3047072649        0.5000000000
H             0.0000000000        0.6952927351        0.5000000000
H             0.8047072593        0.5000000000        0.5000000000
H             0.6952927351        0.5000000000        0.0000000000
H             0.7499999880        0.7499999880        0.4452927604
H             0.7499999550        0.7499999550        0.0547072393
H             0.7499999550        0.9452927607        0.2500000450
H             0.7499999880        0.5547072396        0.2500000120
H             0.9452927607        0.7499999550        0.2500000450
H             0.0547072393        0.7499999550        0.7499999550



     Writing config-only to output data dir ./AlH3.save/
     NEW-OLD atomic charge density approx. for the potential
     extrapolated charge   96.93046, renormalised to   96.00000

     total cpu time spent up to now is      194.9 secs

     Self-consistent Calculation

     iteration #  1     ecut=    70.00 Ry     beta= 0.70
     Davidson diagonalization with overlap
     c_bands:  1 eigenvalues not converged
     ethr =  1.00E-06,  avg # of iterations =  5.7

     total cpu time spent up to now is      205.4 secs

     total energy              =    -688.09389228 Ry
     estimated scf accuracy    <       0.00155132 Ry

     iteration #  2     ecut=    70.00 Ry     beta= 0.70
     Davidson diagonalization with overlap
     ethr =  1.62E-06,  avg # of iterations =  7.8

     total cpu time spent up to now is      216.1 secs

     total energy              =    -688.09642369 Ry
     estimated scf accuracy    <       0.00141553 Ry

     iteration #  3     ecut=    70.00 Ry     beta= 0.70
     Davidson diagonalization with overlap
     ethr =  1.47E-06,  avg # of iterations =  1.0

     total cpu time spent up to now is      222.4 secs

     total energy              =    -688.09629688 Ry
     estimated scf accuracy    <       0.00033769 Ry

     iteration #  4     ecut=    70.00 Ry     beta= 0.70
     Davidson diagonalization with overlap
     ethr =  3.52E-07,  avg # of iterations =  2.0

     total cpu time spent up to now is      230.7 secs

     total energy              =    -688.09635970 Ry
     estimated scf accuracy    <       0.00000260 Ry

     iteration #  5     ecut=    70.00 Ry     beta= 0.70
     Davidson diagonalization with overlap
     ethr =  2.71E-09,  avg # of iterations =  5.0

     total cpu time spent up to now is      240.7 secs

     total energy              =    -688.09635938 Ry
     estimated scf accuracy    <       0.00000491 Ry

     iteration #  6     ecut=    70.00 Ry     beta= 0.70
     Davidson diagonalization with overlap
     ethr =  2.71E-09,  avg # of iterations =  2.0

     total cpu time spent up to now is      248.8 secs

     total energy              =    -688.09636029 Ry
     estimated scf accuracy    <       0.00000002 Ry

     iteration #  7     ecut=    70.00 Ry     beta= 0.70
     Davidson diagonalization with overlap
     ethr =  1.76E-11,  avg # of iterations =  5.4

     total cpu time spent up to now is      260.2 secs

     total energy              =    -688.09636031 Ry
     estimated scf accuracy    <       0.00000001 Ry

     iteration #  8     ecut=    70.00 Ry     beta= 0.70
     Davidson diagonalization with overlap
     ethr =  1.11E-11,  avg # of iterations =  2.0

     total cpu time spent up to now is      268.4 secs

     total energy              =    -688.09636032 Ry
     estimated scf accuracy    <          1.3E-09 Ry

     iteration #  9     ecut=    70.00 Ry     beta= 0.70
     Davidson diagonalization with overlap
     ethr =  1.33E-12,  avg # of iterations =  2.0

     total cpu time spent up to now is      276.5 secs

     total energy              =    -688.09636032 Ry
     estimated scf accuracy    <          3.3E-10 Ry

     iteration # 10     ecut=    70.00 Ry     beta= 0.70
     Davidson diagonalization with overlap
     ethr =  3.48E-13,  avg # of iterations =  2.0

     total cpu time spent up to now is      283.8 secs

     End of self-consistent calculation

          k = 0.0000 0.0000 0.0000 ( 48489 PWs)   bands (ev):

    -9.1403  -7.9189  -7.9189  -7.9189  -7.9189  -7.9189  -7.9189  -5.9218
    -5.9218  -5.9218  -5.9218  -5.9218  -5.9218  -5.0089  -5.0089  -5.0089
    -4.8906  -4.1864  -4.1864  -4.1864  -4.1864  -4.1864  -4.1864  -4.0969
    -4.0969  -4.0969  -3.6930  -3.6930  -2.4020  -2.4020  -2.4020  -2.4020
    -2.4020  -2.4020  -2.2372  -2.2372  -2.2372  -2.2372  -2.2372  -2.2372
    -1.5403  -1.5403  -1.5403  -1.5403  -1.5403  -1.5403  -0.2698  -0.2698
     2.8781   2.8781   2.8781   2.8781   2.8781   2.8781   3.2851   4.6774
     4.6774   4.6774

          k = 0.0000 0.0000 0.1420 ( 48313 PWs)   bands (ev):

    -9.1143  -8.2324  -7.9170  -7.9170  -7.9170  -7.9170  -7.5668  -5.9412
    -5.9412  -5.9412  -5.9412  -5.8956  -5.8956  -5.4092  -5.1109  -5.1109
    -4.5333  -4.1920  -4.1693  -4.1171  -4.1171  -4.1171  -4.1171  -4.1032
    -3.9584  -3.9584  -3.6654  -3.6550  -2.7302  -2.5676  -2.5676  -2.5676
    -2.5676  -2.3262  -2.3262  -2.1691  -2.1691  -2.1691  -2.1691  -2.0396
    -1.9213  -1.5006  -1.5006  -1.5006  -1.5006  -1.1989  -0.3494  -0.2932
     2.9280   2.9280   2.9280   2.9280   3.0054   3.0054   3.3491   4.6973
     4.6993   4.6993

          k = 0.0000 0.0000 0.2839 ( 48309 PWs)   bands (ev):

    -9.0366  -8.5036  -7.9126  -7.9126  -7.9126  -7.9126  -7.1806  -5.9823
    -5.9823  -5.9823  -5.9823  -5.8707  -5.8176  -5.8176  -5.3140  -5.3140
    -4.2484  -4.1850  -4.1460  -4.1205  -3.9337  -3.9337  -3.9337  -3.9337
    -3.6490  -3.6490  -3.5827  -3.4919  -3.0168  -2.8529  -2.8529  -2.8529
    -2.8529  -2.5670  -2.5670  -2.3307  -2.1193  -2.1193  -2.1193  -2.1193
    -1.6542  -1.4245  -1.4245  -1.4245  -1.4245  -0.9060  -0.5700  -0.3647
     3.0532   3.0532   3.0532   3.0532   3.3595   3.3595   3.5378   4.7018
     4.7194   4.7194

          k = 0.0000 0.0000 0.4259 ( 48310 PWs)   bands (ev):

    -8.9079  -8.7296  -7.9090  -7.9090  -7.9090  -7.9090  -6.7650  -6.3260
    -6.0133  -6.0133  -6.0133  -6.0133  -5.6901  -5.6901  -5.5183  -5.5183
    -4.1675  -4.1440  -4.1400  -4.1276  -3.7155  -3.7155  -3.7155  -3.7155
    -3.4459  -3.2793  -3.2793  -3.2565  -3.1630  -3.1237  -3.1237  -3.1237
    -3.1237  -2.9031  -2.9031  -2.7537  -2.1009  -2.1009  -2.1009  -2.1009
    -1.3732  -1.3732  -1.3732  -1.3732  -1.2624  -0.8892  -0.6684  -0.4885
     3.1721   3.1721   3.1721   3.1721   3.8406   3.8743   3.8743   4.2391
     4.4404   4.4404

          k = 0.0000 0.1420 0.1420 ( 48302 PWs)   bands (ev):

    -9.0886  -8.2221  -8.2221  -7.9783  -7.8523  -7.5769  -7.5769  -6.0144
    -5.9248  -5.9248  -5.9029  -5.9029  -5.8860  -5.6414  -5.1987  -5.0706
    -4.5100  -4.1837  -4.1176  -4.1176  -4.1074  -4.1074  -4.0521  -3.9337
    -3.8916  -3.8449  -3.6312  -3.5752  -2.8558  -2.8558  -2.7178  -2.4852
    -2.4806  -2.4288  -2.4288  -2.3614  -2.3614  -2.0007  -2.0007  -1.9207
    -1.7897  -1.7897  -1.6114  -1.3750  -1.2152  -1.2152  -0.4018  -0.3435
     2.9462   3.0145   3.0441   3.0441   3.0580   3.0580   3.4121   4.6041
     4.7171   4.8422

          k = 0.0000 0.1420 0.2839 ( 48333 PWs)   bands (ev):

    -9.0119  -8.4876  -8.1928  -8.0376  -7.7843  -7.6069  -7.2081  -6.0702
    -6.0171  -5.9911  -5.9139  -5.8728  -5.8554  -5.8093  -5.3829  -5.2372
    -4.3190  -4.1133  -4.1071  -4.0956  -4.0439  -3.9492  -3.9199  -3.7238
    -3.6827  -3.6269  -3.5276  -3.2751  -3.1366  -3.1198  -2.9362  -2.8230
    -2.6664  -2.6571  -2.5974  -2.4372  -2.3872  -2.1093  -1.9468  -1.8380
    -1.6752  -1.5789  -1.5734  -1.2996  -1.2624  -0.9477  -0.6126  -0.4238
     3.0529   3.1493   3.1737   3.1748   3.3846   3.4009   3.5975   4.5602
     4.7144   4.8571

          k = 0.0000 0.1420 0.4259 ( 48328 PWs)   bands (ev):

    -8.8850  -8.7095  -8.1487  -8.0953  -7.7165  -7.6550  -6.8181  -6.4168
    -6.0853  -6.0546  -5.9109  -5.8910  -5.7363  -5.6614  -5.5741  -5.4641
    -4.1552  -4.0984  -4.0875  -4.0637  -3.9414  -3.8215  -3.6592  -3.5854
    -3.4920  -3.3834  -3.3181  -3.2981  -3.2749  -3.1404  -3.1104  -3.0107
    -2.9333  -2.9121  -2.8798  -2.4784  -2.4134  -2.3998  -1.9063  -1.8701
    -1.4480  -1.3999  -1.3392  -1.3054  -1.2982  -0.9297  -0.7210  -0.5460
     3.1870   3.2459   3.2729   3.3004   3.8837   3.8890   3.8940   4.2805
     4.3977   4.4189

          k = 0.0000 0.2839 0.2839 ( 48298 PWs)   bands (ev):

    -8.9383  -8.4406  -8.4406  -8.1581  -7.6532  -7.2843  -7.2843  -6.3031
    -6.1114  -5.9434  -5.9434  -5.7856  -5.7856  -5.7822  -5.5367  -5.2276
    -4.3478  -4.1805  -3.9839  -3.9839  -3.9198  -3.9026  -3.9026  -3.6967
    -3.5095  -3.4651  -3.4052  -3.3646  -3.3646  -3.0871  -2.8990  -2.8918
    -2.7146  -2.7146  -2.6933  -2.6933  -2.6863  -1.7976  -1.7976  -1.7628
    -1.7300  -1.7300  -1.5432  -1.2657  -1.0538  -1.0538  -0.7762  -0.5462
     3.1561   3.3904   3.4587   3.4587   3.4698   3.4698   3.7725   4.4554
     4.5761   4.6213

          k = 0.0000 0.2839 0.4259 ( 48350 PWs)   bands (ev):

    -8.8170  -8.6500  -8.3661  -8.2697  -7.5210  -7.3940  -6.9536  -6.6234
    -6.0979  -6.0356  -5.8444  -5.7558  -5.7445  -5.7031  -5.6036  -5.3923
    -4.2205  -4.1160  -4.0711  -3.9821  -3.8846  -3.8780  -3.6354  -3.6311
    -3.5399  -3.4006  -3.3597  -3.3035  -3.2483  -3.1720  -3.0894  -3.0379
    -2.9382  -2.8617  -2.7294  -2.7282  -2.4895  -2.1126  -1.8089  -1.7893
    -1.5294  -1.4091  -1.3555  -1.3443  -1.1929  -1.0665  -0.8501  -0.6815
     3.3167   3.4507   3.5604   3.5769   3.8716   3.9209   4.0472   4.3072
     4.3411   4.4057

          k = 0.0000 0.4259 0.4259 ( 48268 PWs)   bands (ev):

    -8.7055  -8.5537  -8.5537  -8.4249  -7.3244  -7.1312  -7.1312  -6.8712
    -6.0533  -5.9621  -5.9621  -5.8448  -5.6220  -5.5744  -5.5744  -5.4265
    -4.2431  -4.1918  -4.1463  -4.1463  -3.7066  -3.6342  -3.6342  -3.5448
    -3.4627  -3.4627  -3.4237  -3.2741  -3.2288  -3.1534  -3.0348  -3.0279
    -3.0279  -2.9793  -2.9793  -2.9552  -2.1078  -1.7752  -1.7752  -1.7412
    -1.5803  -1.5803  -1.5076  -1.3051  -1.1775  -1.0072  -1.0072  -0.8370
     3.5206   3.7358   3.7358   3.9347   3.9948   3.9948   4.0388   4.2977
     4.3167   4.3244

          k = 0.1420 0.1420 0.1420 ( 48281 PWs)   bands (ev):

    -9.0633  -8.2178  -8.2178  -8.2178  -7.5818  -7.5818  -7.5818  -5.9821
    -5.9821  -5.9821  -5.8609  -5.8609  -5.8609  -5.8226  -5.1497  -5.1497
    -4.5286  -4.1789  -4.1789  -4.1789  -3.9763  -3.9763  -3.9325  -3.9325
    -3.9325  -3.5958  -3.5643  -3.5643  -2.9274  -2.9274  -2.9274  -2.6041
    -2.6041  -2.6041  -2.3338  -2.3338  -2.3338  -1.9115  -1.9115  -1.9115
    -1.7611  -1.7611  -1.7611  -1.2232  -1.2232  -1.2232  -0.4240  -0.4240
     3.0570   3.0570   3.0570   3.1408   3.1408   3.1408   3.4739   4.5122
     4.8611   4.8611

          k = 0.1420 0.1420 0.2839 ( 48351 PWs)   bands (ev):

    -8.9877  -8.4741  -8.2079  -8.2079  -7.5934  -7.5934  -7.2347  -6.1489
    -6.0355  -6.0355  -5.8853  -5.8443  -5.8443  -5.7865  -5.3216  -5.2781
    -4.3874  -4.1670  -4.1119  -4.1119  -4.0062  -3.9337  -3.8219  -3.6946
    -3.6946  -3.5385  -3.3597  -3.2049  -3.1997  -3.1400  -3.1400  -2.8810
    -2.7830  -2.7830  -2.4236  -2.4183  -2.4183  -2.0384  -1.8368  -1.8368
    -1.6870  -1.6231  -1.6231  -1.2524  -1.2524  -0.9907  -0.6459  -0.4919
     3.1396   3.1396   3.2941   3.2941   3.3640   3.4913   3.6549   4.4252
     4.7036   4.8367

          k = 0.1420 0.1420 0.4259 ( 48306 PWs)   bands (ev):

    -8.8630  -8.6908  -8.1996  -8.1996  -7.6031  -7.6031  -6.8720  -6.5061
    -6.0620  -6.0620  -5.8489  -5.8489  -5.7258  -5.6659  -5.5122  -5.5060
    -4.2087  -4.1598  -3.9975  -3.9597  -3.9597  -3.9533  -3.6464  -3.5810
    -3.5810  -3.4416  -3.4300  -3.2269  -3.2269  -3.1923  -3.0531  -2.9999
    -2.9999  -2.7912  -2.7155  -2.4795  -2.4795  -2.3914  -1.8220  -1.8220
    -1.4713  -1.4713  -1.3288  -1.3075  -1.3075  -0.9641  -0.7775  -0.6091
     3.2380   3.2380   3.4096   3.4096   3.8014   3.9407   3.9981   4.2405
     4.3109   4.5548

          k = 0.1420 0.2839 0.2839 ( 48291 PWs)   bands (ev):

    -8.9158  -8.4355  -8.4355  -8.2505  -7.5518  -7.3047  -7.3047  -6.4116
    -6.0614  -5.9365  -5.9365  -5.7610  -5.7570  -5.7570  -5.4490  -5.2640
    -4.4175  -4.1806  -4.1137  -4.1137  -3.9394  -3.8430  -3.7449  -3.7449
    -3.4604  -3.3737  -3.3737  -3.3474  -3.2777  -3.2498  -2.9758  -2.9758
    -2.9475  -2.8650  -2.5171  -2.4367  -2.4367  -1.8233  -1.8233  -1.7412
    -1.7062  -1.7062  -1.5986  -1.2726  -1.0997  -1.0997  -0.7944  -0.6280
     3.2051   3.3811   3.3811   3.5131   3.6263   3.6263   3.8194   4.2833
     4.6144   4.6777

          k = 0.1420 0.2839 0.4259 ( 48321 PWs)   bands (ev):

    -8.7975  -8.6358  -8.3780  -8.3117  -7.4831  -7.3952  -7.0045  -6.7045
    -6.0437  -5.9949  -5.7908  -5.7309  -5.7234  -5.6217  -5.6080  -5.4143
    -4.2805  -4.1502  -4.1247  -4.0389  -3.9134  -3.8456  -3.7257  -3.7046
    -3.5579  -3.5373  -3.3406  -3.2905  -3.2692  -3.1845  -2.9935  -2.9924
    -2.9880  -2.6746  -2.6132  -2.5549  -2.4724  -2.1069  -1.7725  -1.7677
    -1.5542  -1.4305  -1.4254  -1.3536  -1.2409  -1.0862  -0.9162  -0.7575
     3.3129   3.3855   3.6974   3.7141   3.7202   4.0043   4.1039   4.1559
     4.4021   4.5358

          k = 0.1420 0.4259 0.4259 ( 48312 PWs)   bands (ev):

    -8.6911  -8.5484  -8.5484  -8.4361  -7.3327  -7.1680  -7.1680  -6.9346
    -5.9828  -5.8907  -5.8907  -5.7599  -5.6095  -5.5683  -5.5683  -5.4313
    -4.2861  -4.2056  -4.1790  -4.1789  -3.7938  -3.7545  -3.7545  -3.7160
    -3.5534  -3.5382  -3.5382  -3.4996  -3.0793  -3.0254  -3.0254  -2.9449
    -2.8414  -2.7895  -2.7238  -2.7238  -2.1107  -1.7967  -1.7967  -1.7306
    -1.5755  -1.5755  -1.5261  -1.3144  -1.2522  -1.0814  -1.0814  -0.9180
     3.4517   3.6054   3.6054   3.8421   4.0482   4.1546   4.1546   4.3267
     4.4143   4.4953

          k = 0.2839 0.2839 0.2839 ( 48317 PWs)   bands (ev):

    -8.8490  -8.4238  -8.4238  -8.4238  -7.3492  -7.3492  -7.3492  -6.6348
    -5.9181  -5.9181  -5.9181  -5.6992  -5.6992  -5.6992  -5.3594  -5.3594
    -4.5029  -4.1887  -4.1887  -4.1887  -3.9310  -3.9310  -3.6327  -3.6327
    -3.6327  -3.4909  -3.4909  -3.4909  -3.0801  -3.0801  -3.0126  -3.0126
    -3.0126  -2.6916  -2.3386  -2.3386  -2.3386  -1.8067  -1.8067  -1.8067
    -1.6588  -1.6588  -1.6588  -1.2171  -1.2171  -1.2171  -0.8506  -0.8506
     3.3473   3.3473   3.3473   3.8502   3.8502   3.8502   3.9107   4.1393
     4.5915   4.5916

          k = 0.2839 0.2839 0.4259 ( 48267 PWs)   bands (ev):

    -8.7405  -8.5954  -8.4139  -8.4139  -7.3836  -7.3836  -7.1200  -6.8796
    -5.9008  -5.9008  -5.7048  -5.6596  -5.6596  -5.6025  -5.4824  -5.4757
    -4.4003  -4.2439  -4.1682  -4.1682  -3.9412  -3.8497  -3.8440  -3.7522
    -3.7522  -3.6986  -3.5247  -3.5247  -3.0425  -3.0365  -2.8440  -2.8440
    -2.7583  -2.4583  -2.4423  -2.4423  -2.3622  -2.0391  -1.7516  -1.7516
    -1.5490  -1.5490  -1.4790  -1.3676  -1.3676  -1.1594  -1.0813  -0.9478
     3.3386   3.3386   3.5634   3.7989   4.0171   4.0171   4.2335   4.3248
     4.4052   4.5792

          k = 0.2839 0.4259 0.4259 ( 48268 PWs)   bands (ev):

    -8.6504  -8.5362  -8.5362  -8.4706  -7.3349  -7.2421  -7.2421  -7.0698
    -5.8024  -5.7260  -5.7260  -5.5827  -5.5750  -5.5530  -5.5530  -5.4484
    -4.4178  -4.2883  -4.2883  -4.2690  -3.9054  -3.8843  -3.8724  -3.8724
    -3.7734  -3.7529  -3.7529  -3.7453  -2.7870  -2.7685  -2.7685  -2.6554
    -2.6313  -2.5096  -2.4582  -2.4582  -2.1051  -1.8497  -1.8497  -1.7514
    -1.5647  -1.5647  -1.5348  -1.4318  -1.3446  -1.2701  -1.2701  -1.1323
     3.3528   3.4333   3.4333   3.5964   4.3154   4.3500   4.4001   4.4006
     4.4491   4.4531

          k = 0.4259 0.4259 0.4259 ( 48290 PWs)   bands (ev):

    -8.5910  -8.5259  -8.5259  -8.5259  -7.2956  -7.2956  -7.2956  -7.2028
    -5.5901  -5.5901  -5.5901  -5.5279  -5.5279  -5.5279  -5.4817  -5.4817
    -4.5142  -4.4169  -4.4169  -4.4169  -3.9416  -3.9416  -3.9181  -3.9181
    -3.9181  -3.8848  -3.8848  -3.8848  -2.5020  -2.5020  -2.5020  -2.4877
    -2.4877  -2.3430  -2.3430  -2.3430  -2.0319  -1.8761  -1.8761  -1.8761
    -1.5510  -1.5510  -1.5510  -1.4743  -1.4743  -1.4743  -1.3995  -1.3995
     3.3311   3.3311   3.3311   3.4160   4.2741   4.3088   4.3088   4.3088
     4.7258   4.7258

     the Fermi energy is     1.7009 ev

[...]

    -9.1096  -8.2343  -7.9212  -7.9212  -7.9212  -7.9212  -7.5735  -5.9623
    -5.9623  -5.9623  -5.9623  -5.9173  -5.9173  -5.4303  -5.1416  -5.1416
    -4.5549  -4.2150  -4.1928  -4.1409  -4.1409  -4.1409  -4.1409  -4.1279
    -3.9853  -3.9853  -3.6984  -3.6882  -2.7693  -2.6060  -2.6060  -2.6060
    -2.6060  -2.3644  -2.3644  -2.2095  -2.2095  -2.2095  -2.2095  -2.0829
    -1.9623  -1.5444  -1.5444  -1.5444  -1.5444  -1.2447  -0.4024  -0.3464
     2.8270   2.8270   2.8270   2.8270   2.9039   2.9039   3.3073   4.6342
     4.6342   4.6348

          k = 0.0000 0.0000 0.2830 ( 49674 PWs)   bands (ev):

    -9.0325  -8.5036  -7.9168  -7.9168  -7.9168  -7.9168  -7.1899  -6.0028
    -6.0028  -6.0028  -6.0028  -5.8885  -5.8400  -5.8400  -5.3416  -5.3416
    -4.2719  -4.2081  -4.1700  -4.1448  -3.9591  -3.9591  -3.9591  -3.9591
    -3.6795  -3.6795  -3.6163  -3.5258  -3.0540  -2.8889  -2.8889  -2.8889
    -2.8889  -2.6043  -2.6043  -2.3693  -2.1607  -2.1607  -2.1607  -2.1607
    -1.6998  -1.4692  -1.4692  -1.4692  -1.4692  -0.9541  -0.6218  -0.4173
     2.9522   2.9522   2.9522   2.9522   3.2562   3.2562   3.4942   4.6403
     4.6403   4.6997

          k = 0.0000 0.0000 0.4244 ( 49726 PWs)   bands (ev):

    -8.9048  -8.7279  -7.9133  -7.9133  -7.9133  -7.9133  -6.7771  -6.3409
    -6.0332  -6.0332  -6.0332  -6.0332  -5.7137  -5.7137  -5.5436  -5.5436
    -4.1910  -4.1679  -4.1645  -4.1521  -3.7425  -3.7425  -3.7425  -3.7425
    -3.4804  -3.3126  -3.3126  -3.2922  -3.1979  -3.1579  -3.1579  -3.1579
    -3.1579  -2.9388  -2.9388  -2.7902  -2.1426  -2.1426  -2.1426  -2.1426
    -1.4185  -1.4185  -1.4185  -1.4185  -1.3104  -0.9393  -0.7184  -0.5400
     3.0710   3.0710   3.0710   3.0710   3.7683   3.7683   3.7942   4.1888
     4.3347   4.3347

          k = 0.0000 0.1415 0.1415 ( 49734 PWs)   bands (ev):

    -9.0842  -8.2241  -8.2241  -7.9821  -7.8569  -7.5835  -7.5835  -6.0345
    -5.9460  -5.9460  -5.9244  -5.9244  -5.9079  -5.6612  -5.2278  -5.1025
    -4.5296  -4.2069  -4.1414  -4.1414  -4.1315  -4.1315  -4.0772  -3.9592
    -3.9197  -3.8739  -3.6646  -3.6084  -2.8931  -2.8931  -2.7548  -2.5221
    -2.5213  -2.4665  -2.4665  -2.4004  -2.4004  -2.0440  -2.0440  -1.9631
    -1.8314  -1.8314  -1.6550  -1.4194  -1.2612  -1.2612  -0.4545  -0.3964
     2.8461   2.9127   2.9426   2.9426   2.9566   2.9566   3.3697   4.5404
     4.6489   4.7756

          k = 0.0000 0.1415 0.2830 ( 49726 PWs)   bands (ev):

    -9.0080  -8.4877  -8.1951  -8.0410  -7.7895  -7.6133  -7.2172  -6.0894
    -6.0341  -6.0113  -5.9351  -5.8947  -5.8772  -5.8317  -5.4094  -5.2661
    -4.3407  -4.1371  -4.1311  -4.1199  -4.0691  -3.9744  -3.9456  -3.7551
    -3.7102  -3.6575  -3.5616  -3.3092  -3.1723  -3.1547  -2.9713  -2.8589
    -2.7039  -2.6933  -2.6343  -2.4770  -2.4268  -2.1492  -1.9903  -1.8812
    -1.7208  -1.6234  -1.6166  -1.3446  -1.3087  -0.9958  -0.6642  -0.4761
     2.9533   3.0479   3.0713   3.0735   3.2816   3.2978   3.5534   4.4916
     4.6306   4.7686

          k = 0.0000 0.1415 0.4244 ( 49745 PWs)   bands (ev):

    -8.8821  -8.7080  -8.1513  -8.0983  -7.7221  -7.6611  -6.8298  -6.4312
    -6.1042  -6.0740  -5.9321  -5.9124  -5.7592  -5.6853  -5.5986  -5.4902
    -4.1787  -4.1227  -4.1118  -4.0884  -3.9667  -3.8473  -3.6871  -3.6181
    -3.5207  -3.4174  -3.3530  -3.3318  -3.3082  -3.1744  -3.1443  -3.0467
    -2.9677  -2.9476  -2.9158  -2.5165  -2.4534  -2.4397  -1.9498  -1.9135
    -1.4936  -1.4443  -1.3855  -1.3504  -1.3461  -0.9796  -0.7709  -0.5973
     3.0871   3.1452   3.1710   3.1977   3.7787   3.7836   3.8470   4.2298
     4.3004   4.3136

          k = 0.0000 0.2830 0.2830 ( 49730 PWs)   bands (ev):

    -8.9350  -8.4410  -8.4410  -8.1606  -7.6592  -7.2929  -7.2929  -6.3183
    -6.1300  -5.9639  -5.9639  -5.8082  -5.8082  -5.8052  -5.5613  -5.2574
    -4.3679  -4.2036  -4.0085  -4.0085  -3.9461  -3.9287  -3.9287  -3.7282
    -3.5411  -3.4997  -3.4347  -3.3983  -3.3983  -3.1208  -2.9333  -2.9279
    -2.7526  -2.7526  -2.7289  -2.7289  -2.7258  -1.8395  -1.8395  -1.8073
    -1.7756  -1.7756  -1.5882  -1.3106  -1.1017  -1.1017  -0.8270  -0.5977
     3.0575   3.2865   3.3562   3.3562   3.3677   3.3677   3.7267   4.3867
     4.4831   4.5239

          k = 0.0000 0.2830 0.4244 ( 49739 PWs)   bands (ev):

    -8.8146  -8.6489  -8.3671  -8.2714  -7.5279  -7.4018  -6.9644  -6.6364
    -6.1165  -6.0550  -5.8658  -5.7788  -5.7679  -5.7259  -5.6283  -5.4197
    -4.2424  -4.1396  -4.0946  -4.0065  -3.9110  -3.9047  -3.6673  -3.6596
    -3.5726  -3.4335  -3.3904  -3.3390  -3.2814  -3.2054  -3.1218  -3.0744
    -2.9729  -2.8957  -2.7680  -2.7665  -2.5278  -2.1528  -1.8539  -1.8347
    -1.5728  -1.4565  -1.4019  -1.3888  -1.2403  -1.1157  -0.8994  -0.7321
     3.2178   3.3502   3.4576   3.4725   3.7681   3.8178   3.9976   4.2045
     4.2549   4.3732

          k = 0.0000 0.4244 0.4244 ( 49750 PWs)   bands (ev):

    -8.7040  -8.5533  -8.5533  -8.4255  -7.3327  -7.1408  -7.1408  -6.8825
    -6.0724  -5.9821  -5.9821  -5.8660  -5.6470  -5.5997  -5.5997  -5.4538
    -4.2645  -4.2144  -4.1691  -4.1691  -3.7348  -3.6630  -3.6630  -3.5765
    -3.4949  -3.4949  -3.4544  -3.3065  -3.2649  -3.1865  -3.0669  -3.0649
    -3.0649  -3.0128  -3.0128  -2.9931  -2.1482  -1.8173  -1.8173  -1.7874
    -1.6272  -1.6272  -1.5512  -1.3533  -1.2250  -1.0557  -1.0557  -0.8867
     3.4217   3.6352   3.6352   3.8276   3.8920   3.8920   3.9388   4.2051
     4.2431   4.4664

          k = 0.1415 0.1415 0.1415 ( 49782 PWs)   bands (ev):

    -9.0591  -8.2199  -8.2199  -8.2199  -7.5884  -7.5884  -7.5884  -6.0024
    -6.0024  -6.0024  -5.8830  -5.8830  -5.8830  -5.8411  -5.1801  -5.1801
    -4.5470  -4.2022  -4.2022  -4.2022  -4.0031  -4.0031  -3.9580  -3.9580
    -3.9580  -3.6265  -3.5979  -3.5979  -2.9640  -2.9640  -2.9640  -2.6408
    -2.6408  -2.6408  -2.3736  -2.3736  -2.3736  -1.9550  -1.9550  -1.9550
    -1.8031  -1.8031  -1.8031  -1.2693  -1.2693  -1.2693  -0.4765  -0.4765
     2.9566   2.9566   2.9566   3.0385   3.0385   3.0385   3.4309   4.4468
     4.7916   4.9517

          k = 0.1415 0.1415 0.2830 ( 49719 PWs)   bands (ev):

    -8.9841  -8.4743  -8.2101  -8.2101  -7.5999  -7.5999  -7.2437  -6.1652
    -6.0550  -6.0550  -5.9065  -5.8665  -5.8665  -5.8093  -5.3495  -5.3062
    -4.4078  -4.1905  -4.1357  -4.1357  -4.0321  -3.9592  -3.8515  -3.7220
    -3.7220  -3.5718  -3.3940  -3.2387  -3.2348  -3.1746  -3.1746  -2.9168
    -2.8185  -2.8185  -2.4624  -2.4582  -2.4582  -2.0785  -1.8804  -1.8804
    -1.7326  -1.6667  -1.6667  -1.2985  -1.2985  -1.0387  -0.6973  -0.5438
     3.0400   3.0400   3.1911   3.1911   3.2625   3.3872   3.6102   4.3533
     4.7535   4.7539

          k = 0.1415 0.1415 0.4244 ( 49688 PWs)   bands (ev):

    -8.8602  -8.6894  -8.2019  -8.2019  -7.6095  -7.6095  -6.8834  -6.5199
    -6.0811  -6.0811  -5.8709  -5.8709  -5.7486  -5.6899  -5.5372  -5.5316
    -4.2316  -4.1835  -4.0227  -3.9846  -3.9846  -3.9786  -3.6781  -3.6099
    -3.6099  -3.4750  -3.4639  -3.2601  -3.2601  -3.2269  -3.0889  -3.0338
    -3.0338  -2.8274  -2.7530  -2.5194  -2.5194  -2.4296  -1.8655  -1.8655
    -1.5168  -1.5168  -1.3765  -1.3528  -1.3528  -1.0138  -0.8272  -0.6602
     3.1386   3.1386   3.3064   3.3064   3.6993   3.8910   3.8927   4.1470
     4.2598   4.4466

          k = 0.1415 0.2830 0.2830 ( 49747 PWs)   bands (ev):

    -8.9126  -8.4360  -8.4360  -8.2524  -7.5585  -7.3131  -7.3131  -6.4261
    -6.0805  -5.9570  -5.9570  -5.7843  -5.7801  -5.7801  -5.4749  -5.2933
    -4.4367  -4.2037  -4.1375  -4.1375  -3.9663  -3.8724  -3.7718  -3.7718
    -3.4893  -3.4070  -3.4070  -3.3822  -3.3117  -3.2832  -3.0112  -3.0112
    -2.9822  -2.9008  -2.5566  -2.4754  -2.4754  -1.8650  -1.8650  -1.7848
    -1.7518  -1.7518  -1.6438  -1.3183  -1.1475  -1.1475  -0.8450  -0.6792
     3.1069   3.2813   3.2813   3.4085   3.5216   3.5216   3.7727   4.2056
     4.5220   4.6145

          k = 0.1415 0.2830 0.4244 ( 49738 PWs)   bands (ev):

    -8.7953  -8.6348  -8.3789  -8.3132  -7.4902  -7.4029  -7.0149  -6.7169
    -6.0629  -6.0147  -5.8128  -5.7543  -5.7470  -5.6455  -5.6327  -5.4414
    -4.3016  -4.1732  -4.1481  -4.0627  -3.9404  -3.8724  -3.7561  -3.7337
    -3.5897  -3.5675  -3.3726  -3.3253  -3.3011  -3.2196  -3.0293  -3.0272
    -3.0219  -2.7121  -2.6523  -2.5932  -2.5104  -2.1468  -1.8170  -1.8125
    -1.5982  -1.4768  -1.4728  -1.3985  -1.2880  -1.1353  -0.9654  -0.8078
     3.2153   3.2873   3.5922   3.6095   3.6215   3.9280   3.9968   4.0907
     4.3491   4.4387

          k = 0.1415 0.4244 0.4244 ( 49744 PWs)   bands (ev):

    -8.6897  -8.5481  -8.5481  -8.4367  -7.3408  -7.1772  -7.1772  -6.9455
    -6.0026  -5.9115  -5.9115  -5.7820  -5.6346  -5.5938  -5.5938  -5.4586
    -4.3068  -4.2279  -4.2012  -4.2012  -3.8220  -3.7834  -3.7834  -3.7463
    -3.5840  -3.5690  -3.5690  -3.5301  -3.1158  -3.0611  -3.0611  -2.9797
    -2.8756  -2.8276  -2.7603  -2.7603  -2.1507  -1.8384  -1.8384  -1.7761
    -1.6224  -1.6224  -1.5700  -1.3625  -1.2996  -1.1298  -1.1298  -0.9675
     3.3551   3.5086   3.5086   3.7488   3.9403   4.0484   4.0484   4.2720
     4.3200   4.4287

          k = 0.2830 0.2830 0.2830 ( 49757 PWs)   bands (ev):

    -8.8464  -8.4244  -8.4244  -8.4244  -7.3572  -7.3572  -7.3572  -6.6477
    -5.9387  -5.9387  -5.9387  -5.7232  -5.7232  -5.7232  -5.3874  -5.3874
    -4.5207  -4.2116  -4.2116  -4.2116  -3.9590  -3.9590  -3.6607  -3.6607
    -3.6607  -3.5230  -3.5230  -3.5230  -3.1162  -3.1162  -3.0479  -3.0479
    -3.0479  -2.7274  -2.3782  -2.3782  -2.3782  -1.8481  -1.8481  -1.8481
    -1.7049  -1.7049  -1.7049  -1.2645  -1.2645  -1.2645  -0.9008  -0.9008
     3.2501   3.2501   3.2501   3.7436   3.7436   3.7436   3.8514   4.0663
     4.5249   4.5249

          k = 0.2830 0.2830 0.4244 ( 49754 PWs)   bands (ev):

    -8.7387  -8.5947  -8.4147  -8.4147  -7.3913  -7.3913  -7.1295  -6.8908
    -5.9215  -5.9215  -5.7277  -5.6840  -5.6840  -5.6275  -5.5088  -5.5018
    -4.4198  -4.2658  -4.1908  -4.1908  -3.9685  -3.8788  -3.8713  -3.7812
    -3.7812  -3.7291  -3.5554  -3.5554  -3.0785  -3.0721  -2.8794  -2.8794
    -2.7960  -2.4974  -2.4817  -2.4817  -2.3999  -2.0787  -1.7944  -1.7944
    -1.5952  -1.5952  -1.5263  -1.4140  -1.4140  -1.2082  -1.1299  -0.9973
     3.2431   3.2431   3.4683   3.7108   3.9099   3.9099   4.1801   4.2146
     4.3534   4.5219

          k = 0.2830 0.4244 0.4244 ( 49760 PWs)   bands (ev):

    -8.6493  -8.5360  -8.5360  -8.4709  -7.3428  -7.2508  -7.2508  -7.0796
    -5.8243  -5.7488  -5.7488  -5.6075  -5.6006  -5.5788  -5.5788  -5.4756
    -4.4367  -4.3091  -4.3091  -4.2902  -3.9332  -3.9129  -3.9006  -3.9006
    -3.8022  -3.7823  -3.7823  -3.7747  -2.8247  -2.8054  -2.8054  -2.6928
    -2.6676  -2.5487  -2.4966  -2.4966  -2.1441  -1.8904  -1.8904  -1.7939
    -1.6118  -1.6118  -1.5808  -1.4789  -1.3926  -1.3179  -1.3179  -1.1809
     3.2589   3.3397   3.3397   3.5050   4.2395   4.2657   4.3348   4.3350
     4.3589   4.3604

          k = 0.4244 0.4244 0.4244 ( 49748 PWs)   bands (ev):

    -8.5904  -8.5258  -8.5258  -8.5258  -7.3038  -7.3038  -7.3038  -7.2116
    -5.6150  -5.6150  -5.6150  -5.5541  -5.5541  -5.5541  -5.5085  -5.5085
    -4.5315  -4.4359  -4.4359  -4.4359  -3.9694  -3.9694  -3.9460  -3.9460
    -3.9460  -3.9132  -3.9132  -3.9132  -2.5401  -2.5401  -2.5401  -2.5267
    -2.5267  -2.3825  -2.3825  -2.3825  -2.0703  -1.9159  -1.9159  -1.9159
    -1.5982  -1.5982  -1.5982  -1.5216  -1.5216  -1.5216  -1.4472  -1.4472
     3.2388   3.2388   3.2388   3.3245   4.2574   4.2633   4.2633   4.6101
     4.6111   4.6111

     the Fermi energy is     1.7701 ev

!    total energy              =    -688.09748397 Ry
     estimated scf accuracy    <          2.0E-11 Ry
     smearing contrib. (-TS)   =       0.00000000 Ry
     internal energy E=F+TS    =    -688.09748397 Ry

     The total energy is F=E-TS. E is the sum of the following terms:
     one-electron contribution =     -25.96265052 Ry
     hartree contribution      =      39.87461742 Ry
     xc contribution           =     -75.85201980 Ry
     ewald contribution        =     -71.46638990 Ry
     one-center paw contrib.   =    -554.69104115 Ry

     convergence has been achieved in  10 iterations

     Forces acting on atoms (cartesian axes, Ry/au):

     atom    1 type  2   force =     0.00000001   -0.00000000   -0.00000000
     atom    2 type  2   force =    -0.00000000    0.00000001   -0.00000000
     atom    3 type  2   force =    -0.00000000   -0.00000001    0.00000000
     atom    4 type  2   force =    -0.00000001   -0.00000001   -0.00000001
     atom    5 type  2   force =    -0.00000001    0.00000001    0.00000001
     atom    6 type  2   force =    -0.00000000    0.00000000   -0.00000001
     atom    7 type  2   force =    -0.00000000   -0.00000000    0.00000001
     atom    8 type  2   force =     0.00000001    0.00000000    0.00000000
     atom    9 type  2   force =     0.00000000   -0.00000000   -0.00000001
     atom   10 type  2   force =     0.00000001   -0.00000001    0.00000001
     atom   11 type  2   force =     0.00000001    0.00000001   -0.00000001
     atom   12 type  2   force =     0.00000000    0.00000001    0.00000000
     atom   13 type  2   force =     0.00000000   -0.00000001   -0.00000000
     atom   14 type  2   force =    -0.00000001    0.00000000   -0.00000000
     atom   15 type  2   force =    -0.00000001   -0.00000000    0.00000000
     atom   16 type  2   force =     0.00000000    0.00000000    0.00000001
     atom   17 type  1   force =     0.00000000    0.00000000    0.00070631
     atom   18 type  1   force =    -0.00000000    0.00000000   -0.00070631
     atom   19 type  1   force =    -0.00000000    0.00070630    0.00000000
     atom   20 type  1   force =     0.00000000   -0.00070630    0.00000000
     atom   21 type  1   force =     0.00070631    0.00000000    0.00000000
     atom   22 type  1   force =    -0.00070636    0.00000000    0.00000000
     atom   23 type  1   force =     0.00000000    0.00000000   -0.00070632
     atom   24 type  1   force =    -0.00000002   -0.00000002    0.00070635
     atom   25 type  1   force =     0.00000000   -0.00070632    0.00000000
     atom   26 type  1   force =    -0.00000002    0.00070635   -0.00000002
     atom   27 type  1   force =    -0.00070632    0.00000000    0.00000000
     atom   28 type  1   force =     0.00070632    0.00000000   -0.00000000
     atom   29 type  1   force =     0.00000000    0.00000000    0.00070630
     atom   30 type  1   force =    -0.00000000   -0.00000000   -0.00070630
     atom   31 type  1   force =     0.00000000    0.00070631    0.00000000
     atom   32 type  1   force =     0.00000000   -0.00070631   -0.00000000
     atom   33 type  1   force =     0.00070631    0.00000000    0.00000000
     atom   34 type  1   force =    -0.00070630    0.00000000    0.00000000
     atom   35 type  1   force =    -0.00000002    0.00000002   -0.00070635
     atom   36 type  1   force =     0.00000000   -0.00000000    0.00070632
     atom   37 type  1   force =    -0.00000002   -0.00070635    0.00000002
     atom   38 type  1   force =     0.00000000    0.00070632   -0.00000000
     atom   39 type  1   force =    -0.00070632   -0.00000000   -0.00000000
     atom   40 type  1   force =     0.00070632   -0.00000000    0.00000000
     atom   41 type  1   force =     0.00000000    0.00000000    0.00070636
     atom   42 type  1   force =     0.00000000    0.00000000   -0.00070636
     atom   43 type  1   force =     0.00000000    0.00070636    0.00000000
     atom   44 type  1   force =     0.00000000   -0.00070636    0.00000000
     atom   45 type  1   force =     0.00070636    0.00000000    0.00000000
     atom   46 type  1   force =    -0.00070631    0.00000000   -0.00000000
     atom   47 type  1   force =     0.00000002   -0.00000002   -0.00070635
     atom   48 type  1   force =    -0.00000000    0.00000000    0.00070632
     atom   49 type  1   force =    -0.00000000   -0.00070632   -0.00000000
     atom   50 type  1   force =     0.00000002    0.00070635    0.00000002
     atom   51 type  1   force =    -0.00070635   -0.00000002    0.00000002
     atom   52 type  1   force =     0.00070635   -0.00000002   -0.00000002
     atom   53 type  1   force =    -0.00000000    0.00000000    0.00070631
     atom   54 type  1   force =     0.00000000    0.00000000   -0.00070631
     atom   55 type  1   force =     0.00000000    0.00070631    0.00000000
     atom   56 type  1   force =     0.00000000   -0.00070631   -0.00000000
     atom   57 type  1   force =     0.00070630   -0.00000000    0.00000000
     atom   58 type  1   force =    -0.00070631    0.00000000    0.00000000
     atom   59 type  1   force =    -0.00000000   -0.00000000   -0.00070632
     atom   60 type  1   force =     0.00000002    0.00000002    0.00070635
     atom   61 type  1   force =     0.00000002   -0.00070635   -0.00000002
     atom   62 type  1   force =    -0.00000000    0.00070632    0.00000000
     atom   63 type  1   force =    -0.00070635    0.00000002   -0.00000002
     atom   64 type  1   force =     0.00070635    0.00000002    0.00000002

     Total force =     0.004894     Total SCF correction =     0.000001


     Computing stress (Cartesian axis) and pressure

          total   stress  (Ry/bohr**3)                   (kbar)     P=        0.25
   0.00000170   0.00000000   0.00000000            0.25        0.00        0.00
   0.00000000   0.00000170   0.00000000            0.00        0.25        0.00
   0.00000000   0.00000000   0.00000170            0.00        0.00        0.25


     Writing all to output data dir ./AlH3.save/
 
     init_run     :     11.79s CPU     12.07s WALL (       2 calls)
     electrons    :    502.26s CPU    513.71s WALL (       6 calls)
     update_pot   :      7.09s CPU      7.14s WALL (       4 calls)
     forces       :     15.31s CPU     15.65s WALL (       6 calls)
     stress       :     86.06s CPU     87.03s WALL (       6 calls)

     Called by init_run:
     wfcinit      :      7.93s CPU      8.10s WALL (       2 calls)
     potinit      :      1.66s CPU      1.69s WALL (       2 calls)
     hinit0       :      1.31s CPU      1.33s WALL (       2 calls)

     Called by electrons:
     c_bands      :    422.04s CPU    429.79s WALL (      55 calls)
     sum_band     :     51.89s CPU     53.65s WALL (      55 calls)
     v_of_rho     :      1.37s CPU      1.39s WALL (      60 calls)
     newd         :      3.56s CPU      4.44s WALL (      60 calls)
     PAW_pot      :     27.43s CPU     27.71s WALL (      64 calls)
     mix_rho      :      0.38s CPU      0.40s WALL (      55 calls)

     Called by c_bands:
     init_us_2    :     14.87s CPU     15.07s WALL (    2560 calls)
     init_us_2:cp :     14.85s CPU     15.06s WALL (    2560 calls)
     cegterg      :    371.05s CPU    375.52s WALL (    1103 calls)

     Called by *egterg:
     cdiaghg      :     21.30s CPU     21.44s WALL (    5575 calls)
     h_psi        :    251.43s CPU    254.82s WALL (    5718 calls)
     s_psi        :     42.94s CPU     43.28s WALL (    5718 calls)
     g_psi        :      1.89s CPU      1.91s WALL (    4575 calls)

     Called by h_psi:
     h_psi:calbec :     41.13s CPU     41.48s WALL (    5718 calls)
     vloc_psi     :    165.49s CPU    168.11s WALL (    5718 calls)
     add_vuspsi   :     42.49s CPU     42.83s WALL (    5718 calls)

     General routines
     calbec       :     60.68s CPU     61.16s WALL (    7498 calls)
     fft          :      0.73s CPU      0.74s WALL (     815 calls)
     ffts         :      0.05s CPU      0.05s WALL (      55 calls)
     fftw         :    167.07s CPU    169.66s WALL (  463914 calls)
 
     Parallel routines
 
     PWSCF        :  10m27.10s CPU  10m45.43s WALL

 
   This run was terminated on:  15:36:43   3Dec2023            

=------------------------------------------------------------------------------=
   JOB DONE.
=------------------------------------------------------------------------------=
