
     Program PWSCF v.7.1 starts on  8Dec2023 at 13:30:43 

     This program is part of the open-source Quantum ESPRESSO suite
     for quantum simulation of materials; please cite
         "P. Giannozzi et al., J. Phys.:Condens. Matter 21 395502 (2009);
         "P. Giannozzi et al., J. Phys.:Condens. Matter 29 465901 (2017);
         "P. Giannozzi et al., J. Chem. Phys. 152 154105 (2020);
          URL http://www.quantum-espresso.org", 
     in publications or presentations arising from this work. More details at
     http://www.quantum-espresso.org/quote

     Parallel version (MPI & OpenMP), running on      28 processor cores
     Number of MPI processes:                28
     Threads/MPI process:                     1

     MPI processes distributed on     1 nodes
     109872 MiB available memory on the printing compute node when the environment starts
 
     Reading input from BH3_opt.in

     Current dimensions of program PWSCF are:
     Max number of different atomic species (ntypx) = 10
     Max number of k-points (npk) =  40000
     Max angular momentum in pseudopotentials (lmaxx) =  4

     IMPORTANT: XC functional enforced from input :
     Exchange-correlation= PBE
                           (   1   4   3   4   0   0   0)
     Any further DFT definition will be discarded
     Please, verify this is what you really want

     Message from routine setup:
     using ibrav=0 with symmetry is DISCOURAGED, use correct ibrav instead
 
     R & G space division:  proc/nbgrp/npool/nimage =      28
     Subspace diagonalization in iterative solution of the eigenvalue problem:
     a serial algorithm will be used

 
     Parallelization info
     --------------------
     sticks:   dense  smooth     PW     G-vecs:    dense   smooth      PW
     Min         161     161     44                 8801     8801    1264
     Max         162     162     45                 8805     8805    1266
     Sum        4533    4533   1243               246511   246511   35423
 
     Using Slab Decomposition
 


     bravais-lattice index     =            0
     lattice parameter (alat)  =       8.1081  a.u.
     unit-cell volume          =     992.9145 (a.u.)^3
     number of atoms/cell      =           16
     number of atomic types    =            2
     number of electrons       =        24.00
     number of Kohn-Sham states=           16
     kinetic-energy cutoff     =     150.0000  Ry
     charge density cutoff     =     600.0000  Ry
     scf convergence threshold =      1.0E-08
     mixing beta               =       0.7000
     number of iterations used =            8  plain     mixing
     energy convergence thresh.=      1.0E-04
     force convergence thresh. =      1.0E-03
     press convergence thresh. =      5.0E-01
     Exchange-correlation= PBE
                           (   1   4   3   4   0   0   0)
     nstep                     =           50


     celldm(1)=   8.108059  celldm(2)=   0.000000  celldm(3)=   0.000000
     celldm(4)=   0.000000  celldm(5)=   0.000000  celldm(6)=   0.000000

     crystal axes: (cart. coord. in units of alat)
               a(1) = (   1.000000   0.000000   0.000000 )  
               a(2) = (   0.000000   1.442472   0.000000 )  
               a(3) = (  -0.644894   0.000000   1.291379 )  

     reciprocal axes: (cart. coord. in units 2 pi/alat)
               b(1) = (  1.000000  0.000000  0.499384 )  
               b(2) = (  0.000000  0.693254  0.000000 )  
               b(3) = (  0.000000  0.000000  0.774366 )  


     PseudoPot. # 1 for B  read from file:
     /scratch/antwerpen/209/vsc20922/pseudos/b_pbe_v1.4.uspp.F.UPF
     MD5 check sum: cc6de2960df11db49a60e589f9ebb39b
     Pseudo is Ultrasoft + core correction, Zval =  3.0
     Generated by new atomic code, or converted to UPF format
     Using radial grid of  781 points,  4 beta functions with: 
                l(1) =   0
                l(2) =   0
                l(3) =   1
                l(4) =   1
     Q(r) pseudized with  8 coefficients,  rinner =    1.100   1.100   1.100


     PseudoPot. # 2 for H  read from file:
     /scratch/antwerpen/209/vsc20922/pseudos/H.pbe-rrkjus_psl.1.0.0.UPF
     MD5 check sum: f52b6d4d1c606e5624b1dc7b2218f220
     Pseudo is Ultrasoft, Zval =  1.0
     Generated using "atomic" code by A. Dal Corso  v.5.1
     Using radial grid of  929 points,  2 beta functions with: 
                l(1) =   0
                l(2) =   0
     Q(r) pseudized with 0 coefficients 


     atomic species   valence    mass     pseudopotential
        B              3.00    10.81350     B ( 1.00)
        H              1.00     1.00750     H ( 1.00)

      4 Sym. Ops., with inversion, found ( 2 have fractional translation)



   Cartesian axes

     site n.     atom                  positions (alat units)
         1           B   tau(   1) = (  -0.2732280   0.7844302   0.8324538  )
         2           B   tau(   2) = (   0.3058873   0.0631944   1.1046154  )
         3           B   tau(   3) = (   0.6283342   0.6580415   0.4589256  )
         4           B   tau(   4) = (   0.0492189   1.3792774   0.1867641  )
         5           H   tau(   5) = (  -0.0461572   0.9393059   0.8669348  )
         6           H   tau(   6) = (   0.0788165   0.2180701   1.0701343  )
         7           H   tau(   7) = (   0.4012634   0.5031658   0.4244446  )
         8           H   tau(   8) = (   0.2762897   1.2244016   0.2212451  )
         9           H   tau(   9) = (  -0.4347912   0.7143759   1.0464948  )
        10           H   tau(  10) = (   0.4674505   1.4356118   0.8905744  )
        11           H   tau(  11) = (   0.7898974   0.7280958   0.2448847  )
        12           H   tau(  12) = (  -0.1123443   0.0068599   0.4008051  )
        13           H   tau(  13) = (   0.5519442   0.9107572   0.6146316  )
        14           H   tau(  14) = (   0.1256089   0.1895213   0.0310581  )
        15           H   tau(  15) = (  -0.1968380   0.5317145   0.6767478  )
        16           H   tau(  16) = (   0.2294973   1.2529504   1.2603213  )

     number of k points=   100  Marzari-Vanderbilt smearing, width (Ry)=  0.0050

     Number of k-points >= 100: set verbosity='high' to print them.

     Dense  grid:   246511 G-vectors     FFT dimensions: (  64,  96,  96)

     Estimated max dynamical RAM per process >      46.35 MB

     Estimated total dynamical RAM >       1.27 GB

     Initial potential from superposition of free atoms

     starting charge      23.9988, renormalised to      24.0000
     Starting wfcs are   28 randomized atomic wfcs

     total cpu time spent up to now is        6.0 secs

     Self-consistent Calculation

     iteration #  1     ecut=   150.00 Ry     beta= 0.70
     Davidson diagonalization with overlap
     ethr =  1.00E-02,  avg # of iterations =  3.0

     total cpu time spent up to now is       17.8 secs

     total energy              =     -39.46254648 Ry
     estimated scf accuracy    <       1.11439937 Ry

     iteration #  2     ecut=   150.00 Ry     beta= 0.70
     Davidson diagonalization with overlap
     ethr =  4.64E-03,  avg # of iterations =  2.0

     total cpu time spent up to now is       28.4 secs

     total energy              =     -39.60261772 Ry
     estimated scf accuracy    <       0.07392668 Ry

     iteration #  3     ecut=   150.00 Ry     beta= 0.70
     Davidson diagonalization with overlap
     ethr =  3.08E-04,  avg # of iterations =  2.5

     total cpu time spent up to now is       33.2 secs

     total energy              =     -39.61371595 Ry
     estimated scf accuracy    <       0.00329381 Ry

     iteration #  4     ecut=   150.00 Ry     beta= 0.70
     Davidson diagonalization with overlap
     ethr =  1.37E-05,  avg # of iterations =  5.6

     total cpu time spent up to now is       38.2 secs

     total energy              =     -39.61414392 Ry
     estimated scf accuracy    <       0.00003869 Ry

     iteration #  5     ecut=   150.00 Ry     beta= 0.70
     Davidson diagonalization with overlap
     ethr =  1.61E-07,  avg # of iterations =  2.7

     total cpu time spent up to now is       42.7 secs

     total energy              =     -39.61415928 Ry
     estimated scf accuracy    <       0.00000304 Ry

     iteration #  6     ecut=   150.00 Ry     beta= 0.70
     Davidson diagonalization with overlap
     ethr =  1.27E-08,  avg # of iterations =  2.0

     total cpu time spent up to now is       47.0 secs

     total energy              =     -39.61415997 Ry
     estimated scf accuracy    <       0.00000007 Ry

     iteration #  7     ecut=   150.00 Ry     beta= 0.70
     Davidson diagonalization with overlap
     ethr =  3.11E-10,  avg # of iterations =  2.6

     total cpu time spent up to now is       51.4 secs

     End of self-consistent calculation

     Number of k-points >= 100: set verbosity='high' to print the bands.

     the Fermi energy is     1.1889 ev

!    total energy              =     -39.61416000 Ry
     estimated scf accuracy    <          1.7E-09 Ry
     smearing contrib. (-TS)   =      -0.00000000 Ry
     internal energy E=F+TS    =     -39.61416000 Ry

     The total energy is F=E-TS. E is the sum of the following terms:
     one-electron contribution =     -16.34455208 Ry
     hartree contribution      =      13.57354740 Ry
     xc contribution           =     -20.26303618 Ry
     ewald contribution        =     -16.58011913 Ry

     convergence has been achieved in   7 iterations

     Forces acting on atoms (cartesian axes, Ry/au):

     atom    1 type  1   force =    -0.00131839   -0.00175134   -0.00451539
     atom    2 type  1   force =     0.00131839   -0.00175134    0.00451539
     atom    3 type  1   force =     0.00131839    0.00175134    0.00451539
     atom    4 type  1   force =    -0.00131839    0.00175134   -0.00451539
     atom    5 type  2   force =     0.00297602    0.00228585    0.00073775
     atom    6 type  2   force =    -0.00297602    0.00228585   -0.00073775
     atom    7 type  2   force =    -0.00297602   -0.00228585   -0.00073775
     atom    8 type  2   force =     0.00297602   -0.00228585    0.00073775
     atom    9 type  2   force =    -0.00181010   -0.00111726    0.00325511
     atom   10 type  2   force =     0.00181010   -0.00111726   -0.00325511
     atom   11 type  2   force =     0.00181010    0.00111726   -0.00325511
     atom   12 type  2   force =    -0.00181010    0.00111726    0.00325511
     atom   13 type  2   force =    -0.00136808    0.00249305   -0.00040632
     atom   14 type  2   force =     0.00136808    0.00249305    0.00040632
     atom   15 type  2   force =     0.00136808   -0.00249305    0.00040632
     atom   16 type  2   force =    -0.00136808   -0.00249305   -0.00040632

     Total force =     0.015899     Total SCF correction =     0.000017


     Computing stress (Cartesian axis) and pressure

          total   stress  (Ry/bohr**3)                   (kbar)     P=       13.55
   0.00010250   0.00000000  -0.00001246           15.08        0.00       -1.83
   0.00000000   0.00009465   0.00000000            0.00       13.92        0.00
  -0.00001246   0.00000000   0.00007926           -1.83        0.00       11.66


     BFGS Geometry Optimization
     Energy error            =      0.0E+00 Ry
     Gradient error          =      4.5E-03 Ry/Bohr
     Cell gradient error     =      1.5E+01 kbar

     number of scf cycles    =   1
     number of bfgs steps    =   0

     enthalpy           new  =     -39.6141599952 Ry

     new trust radius        =       0.0162680081 bohr
     new conv_thr            =       0.0000000100 Ry

     new unit-cell volume =    999.79136 a.u.^3 (   148.15379 Ang^3 )
     density =      0.62031 g/cm^3

CELL_PARAMETERS (alat=  8.10805891)
   1.002562503   0.000000000  -0.000311438
   0.000000000   1.445884915   0.000000000
  -0.646948550   0.000000000   1.294139094

ATOMIC_POSITIONS (crystal)
B             0.1420450999        0.5436600271        0.6441924643
B             0.8579549001        0.0436600271        0.8558075357
B             0.8579549001        0.4563399729        0.3558075357
B             0.1420450999        0.9563399729        0.1441924643
H             0.3871883837        0.6513734948        0.6713950893
H             0.6128116163        0.1513734948        0.8286049107
H             0.6128116163        0.3486265052        0.3286049107
H             0.3871883837        0.8486265052        0.1713950893
H             0.0877884489        0.4951487822        0.8106805913
H             0.9122115511        0.9951487822        0.6893194087
H             0.9122115511        0.5048512178        0.1893194087
H             0.0877884489        0.0048512178        0.3106805913
H             0.8586874638        0.6315996703        0.4759108638
H             0.1413125362        0.1315996703        0.0240891362
H             0.1413125362        0.3684003297        0.5240891362
H             0.8586874638        0.8684003297        0.9759108638



     Writing config-only to output data dir ./BH3.save/
     NEW-OLD atomic charge density approx. for the potential
     extrapolated charge   24.16507, renormalised to   24.00000

     total cpu time spent up to now is       54.7 secs

     Self-consistent Calculation

     iteration #  1     ecut=   150.00 Ry     beta= 0.70
     Davidson diagonalization with overlap
     ethr =  1.00E-06,  avg # of iterations =  3.0

     total cpu time spent up to now is       60.1 secs

     total energy              =     -39.61385197 Ry
     estimated scf accuracy    <       0.00062460 Ry

     iteration #  2     ecut=   150.00 Ry     beta= 0.70
     Davidson diagonalization with overlap
     ethr =  2.60E-06,  avg # of iterations =  3.0

     total cpu time spent up to now is       65.2 secs

     total energy              =     -39.61476489 Ry
     estimated scf accuracy    <       0.00113049 Ry

     iteration #  3     ecut=   150.00 Ry     beta= 0.70
     Davidson diagonalization with overlap
     ethr =  2.60E-06,  avg # of iterations =  1.8

     total cpu time spent up to now is       68.8 secs

     total energy              =     -39.61472128 Ry
     estimated scf accuracy    <       0.00022496 Ry

     iteration #  4     ecut=   150.00 Ry     beta= 0.70
     Davidson diagonalization with overlap
     ethr =  9.37E-07,  avg # of iterations =  2.0

     total cpu time spent up to now is       73.0 secs

     total energy              =     -39.61475732 Ry
     estimated scf accuracy    <       0.00000866 Ry

     iteration #  5     ecut=   150.00 Ry     beta= 0.70
     Davidson diagonalization with overlap
     ethr =  3.61E-08,  avg # of iterations =  1.4

     total cpu time spent up to now is       76.4 secs

     total energy              =     -39.61475574 Ry
     estimated scf accuracy    <       0.00000801 Ry

     iteration #  6     ecut=   150.00 Ry     beta= 0.70
     Davidson diagonalization with overlap
     ethr =  3.34E-08,  avg # of iterations =  2.0

     total cpu time spent up to now is       80.1 secs

     total energy              =     -39.61476000 Ry
     estimated scf accuracy    <       0.00000482 Ry

     iteration #  7     ecut=   150.00 Ry     beta= 0.70
     Davidson diagonalization with overlap
     ethr =  2.01E-08,  avg # of iterations =  2.0

     total cpu time spent up to now is       84.4 secs

     total energy              =     -39.61475498 Ry
     estimated scf accuracy    <       0.00001888 Ry

     iteration #  8     ecut=   150.00 Ry     beta= 0.70
     Davidson diagonalization with overlap
     ethr =  2.01E-08,  avg # of iterations =  3.0

     total cpu time spent up to now is       89.2 secs

     total energy              =     -39.61475890 Ry
     estimated scf accuracy    <       0.00002753 Ry

     iteration #  9     ecut=   150.00 Ry     beta= 0.70
     Davidson diagonalization with overlap
     ethr =  2.01E-08,  avg # of iterations =  1.0

     total cpu time spent up to now is       92.5 secs

     total energy              =     -39.61475369 Ry
     estimated scf accuracy    <       0.00001392 Ry

     iteration # 10     ecut=   150.00 Ry     beta= 0.70
     Davidson diagonalization with overlap
     ethr =  2.01E-08,  avg # of iterations =  2.0

     total cpu time spent up to now is       96.8 secs

     total energy              =     -39.61475468 Ry
     estimated scf accuracy    <       0.00000054 Ry

     iteration # 11     ecut=   150.00 Ry     beta= 0.70
     Davidson diagonalization with overlap
     ethr =  2.24E-09,  avg # of iterations =  2.0

     total cpu time spent up to now is      101.1 secs

     total energy              =     -39.61475481 Ry
     estimated scf accuracy    <       0.00000009 Ry

     iteration # 12     ecut=   150.00 Ry     beta= 0.70
     Davidson diagonalization with overlap
     ethr =  3.85E-10,  avg # of iterations =  1.0

     total cpu time spent up to now is      104.4 secs

     total energy              =     -39.61475481 Ry
     estimated scf accuracy    <       0.00000001 Ry

     iteration # 13     ecut=   150.00 Ry     beta= 0.70
     Davidson diagonalization with overlap
     ethr =  4.41E-11,  avg # of iterations =  2.0

     total cpu time spent up to now is      108.6 secs

     End of self-consistent calculation

     Number of k-points >= 100: set verbosity='high' to print the bands.

     the Fermi energy is     1.1366 ev

!    total energy              =     -39.61475481 Ry
     estimated scf accuracy    <          1.5E-10 Ry
     smearing contrib. (-TS)   =      -0.00000000 Ry
     internal energy E=F+TS    =     -39.61475481 Ry

     The total energy is F=E-TS. E is the sum of the following terms:
     one-electron contribution =     -16.38690591 Ry
     hartree contribution      =      13.56657185 Ry
     xc contribution           =     -20.23076587 Ry
     ewald contribution        =     -16.56365487 Ry

     convergence has been achieved in  13 iterations

     Forces acting on atoms (cartesian axes, Ry/au):

     atom    1 type  1   force =     0.00025715    0.00004928    0.00078453
     atom    2 type  1   force =    -0.00025715    0.00004928   -0.00078453
     atom    3 type  1   force =    -0.00025715   -0.00004928   -0.00078453
     atom    4 type  1   force =     0.00025715   -0.00004928    0.00078453
     atom    5 type  2   force =    -0.00157431   -0.00087858   -0.00014282
     atom    6 type  2   force =     0.00157431   -0.00087858    0.00014282
     atom    7 type  2   force =     0.00157431    0.00087858    0.00014282
     atom    8 type  2   force =    -0.00157431    0.00087858   -0.00014282
     atom    9 type  2   force =     0.00128842    0.00015145   -0.00114815
     atom   10 type  2   force =    -0.00128842    0.00015145    0.00114815
     atom   11 type  2   force =    -0.00128842   -0.00015145    0.00114815
     atom   12 type  2   force =     0.00128842   -0.00015145   -0.00114815
     atom   13 type  2   force =    -0.00023649    0.00067651   -0.00026327
     atom   14 type  2   force =     0.00023649    0.00067651    0.00026327
     atom   15 type  2   force =     0.00023649   -0.00067651    0.00026327
     atom   16 type  2   force =    -0.00023649   -0.00067651   -0.00026327

     Total force =     0.005491     Total SCF correction =     0.000007


     Computing stress (Cartesian axis) and pressure

          total   stress  (Ry/bohr**3)                   (kbar)     P=        7.53
   0.00004590   0.00000000   0.00000371            6.75        0.00        0.55
   0.00000000   0.00006200   0.00000000            0.00        9.12        0.00
   0.00000371   0.00000000   0.00004561            0.55        0.00        6.71

     Energy error            =      5.9E-04 Ry
     Gradient error          =      1.6E-03 Ry/Bohr
     Cell gradient error     =      9.1E+00 kbar

     number of scf cycles    =   2
     number of bfgs steps    =   1

     enthalpy           old  =     -39.6141599952 Ry
     enthalpy           new  =     -39.6147548092 Ry

     CASE: enthalpy          _new < enthalpy          _old

     new trust radius        =       0.0195419339 bohr
     new conv_thr            =       0.0000000002 Ry

     new unit-cell volume =   1007.81407 a.u.^3 (   149.34264 Ang^3 )
     density =      0.61537 g/cm^3

CELL_PARAMETERS (alat=  8.10805891)
   1.005126701   0.000000000  -0.000277310
   0.000000000   1.450352950   0.000000000
  -0.648558006   0.000000000   1.297164731

ATOMIC_POSITIONS (crystal)
B             0.1420161384        0.5436161157        0.6441591097
B             0.8579838616        0.0436161157        0.8558408903
B             0.8579838616        0.4563838843        0.3558408903
B             0.1420161384        0.9563838843        0.1441591097
H             0.3870254438        0.6513275168        0.6713985334
H             0.6129745562        0.1513275168        0.8286014666
H             0.6129745562        0.3486724832        0.3286014666
H             0.3870254438        0.8486724832        0.1713985334
H             0.0879117804        0.4951359925        0.8106220523
H             0.9120882196        0.9951359925        0.6893779477
H             0.9120882196        0.5048640075        0.1893779477
H             0.0879117804        0.0048640075        0.3106220523
H             0.8585552488        0.6317568950        0.4758605840
H             0.1414447512        0.1317568950        0.0241394160
H             0.1414447512        0.3682431050        0.5241394160
H             0.8585552488        0.8682431050        0.9758605840



     Writing config-only to output data dir ./BH3.save/
     NEW-OLD atomic charge density approx. for the potential
     extrapolated charge   24.19104, renormalised to   24.00000

     total cpu time spent up to now is      111.8 secs

     Self-consistent Calculation

     iteration #  1     ecut=   150.00 Ry     beta= 0.70
     Davidson diagonalization with overlap
     ethr =  1.00E-06,  avg # of iterations =  3.0

     total cpu time spent up to now is      117.2 secs

     total energy              =     -39.61393866 Ry
     estimated scf accuracy    <       0.00071170 Ry

     iteration #  2     ecut=   150.00 Ry     beta= 0.70
     Davidson diagonalization with overlap
     ethr =  2.97E-06,  avg # of iterations =  3.0

     total cpu time spent up to now is      122.4 secs

     total energy              =     -39.61511320 Ry
     estimated scf accuracy    <       0.00151291 Ry

     iteration #  3     ecut=   150.00 Ry     beta= 0.70
     Davidson diagonalization with overlap
     ethr =  2.97E-06,  avg # of iterations =  2.0

     total cpu time spent up to now is      126.2 secs

     total energy              =     -39.61500655 Ry
     estimated scf accuracy    <       0.00033211 Ry

     iteration #  4     ecut=   150.00 Ry     beta= 0.70
     Davidson diagonalization with overlap
     ethr =  1.38E-06,  avg # of iterations =  2.0

     total cpu time spent up to now is      130.4 secs

     total energy              =     -39.61508024 Ry
     estimated scf accuracy    <       0.00000236 Ry

     iteration #  5     ecut=   150.00 Ry     beta= 0.70
     Davidson diagonalization with overlap
     ethr =  9.85E-09,  avg # of iterations =  2.0

     total cpu time spent up to now is      134.3 secs

     total energy              =     -39.61507993 Ry
     estimated scf accuracy    <       0.00000130 Ry

     iteration #  6     ecut=   150.00 Ry     beta= 0.70
     Davidson diagonalization with overlap
     ethr =  5.42E-09,  avg # of iterations =  2.0

     total cpu time spent up to now is      138.6 secs

     total energy              =     -39.61508013 Ry
     estimated scf accuracy    <       0.00000017 Ry

     iteration #  7     ecut=   150.00 Ry     beta= 0.70
     Davidson diagonalization with overlap
     ethr =  7.19E-10,  avg # of iterations =  1.3

     total cpu time spent up to now is      142.0 secs

     total energy              =     -39.61508015 Ry
     estimated scf accuracy    <          2.2E-09 Ry

     iteration #  8     ecut=   150.00 Ry     beta= 0.70
     Davidson diagonalization with overlap
     ethr =  9.27E-12,  avg # of iterations =  3.4

     total cpu time spent up to now is      147.2 secs

     total energy              =     -39.61508015 Ry
     estimated scf accuracy    <          4.4E-09 Ry

     iteration #  9     ecut=   150.00 Ry     beta= 0.70
     Davidson diagonalization with overlap
     ethr =  9.27E-12,  avg # of iterations =  2.0

     total cpu time spent up to now is      151.4 secs

     total energy              =     -39.61508015 Ry
     estimated scf accuracy    <          4.0E-10 Ry

     iteration # 10     ecut=   150.00 Ry     beta= 0.70
     Davidson diagonalization with overlap
     ethr =  1.65E-12,  avg # of iterations =  2.0

     total cpu time spent up to now is      155.7 secs

     End of self-consistent calculation

     Number of k-points >= 100: set verbosity='high' to print the bands.

     the Fermi energy is     1.0904 ev

!    total energy              =     -39.61508015 Ry
     estimated scf accuracy    <          4.3E-11 Ry
     smearing contrib. (-TS)   =      -0.00000000 Ry
     internal energy E=F+TS    =     -39.61508015 Ry

     The total energy is F=E-TS. E is the sum of the following terms:
     one-electron contribution =     -16.48194728 Ry
     hartree contribution      =      13.58603547 Ry
     xc contribution           =     -20.20624682 Ry
     ewald contribution        =     -16.51292152 Ry

     convergence has been achieved in  10 iterations

     Forces acting on atoms (cartesian axes, Ry/au):

     atom    1 type  1   force =     0.00026564   -0.00002449    0.00003811
     atom    2 type  1   force =    -0.00026564   -0.00002449   -0.00003811
     atom    3 type  1   force =    -0.00026564    0.00002449   -0.00003811
     atom    4 type  1   force =     0.00026564    0.00002449    0.00003811
     atom    5 type  2   force =    -0.00346217   -0.00225715   -0.00057237
     atom    6 type  2   force =     0.00346217   -0.00225715    0.00057237
     atom    7 type  2   force =     0.00346217    0.00225715    0.00057237
     atom    8 type  2   force =    -0.00346217    0.00225715   -0.00057237
     atom    9 type  2   force =     0.00238849    0.00062790   -0.00279568
     atom   10 type  2   force =    -0.00238849    0.00062790    0.00279568
     atom   11 type  2   force =    -0.00238849   -0.00062790    0.00279568
     atom   12 type  2   force =     0.00238849   -0.00062790   -0.00279568
     atom   13 type  2   force =     0.00125241   -0.00172163    0.00012221
     atom   14 type  2   force =    -0.00125241   -0.00172163   -0.00012221
     atom   15 type  2   force =    -0.00125241    0.00172163   -0.00012221
     atom   16 type  2   force =     0.00125241    0.00172163    0.00012221

     Total force =     0.011991     Total SCF correction =     0.000005


     Computing stress (Cartesian axis) and pressure

          total   stress  (Ry/bohr**3)                   (kbar)     P=        3.22
   0.00001671   0.00000000   0.00000305            2.46        0.00        0.45
   0.00000000   0.00003467   0.00000000            0.00        5.10        0.00
   0.00000305   0.00000000   0.00001419            0.45        0.00        2.09

     Energy error            =      3.3E-04 Ry
     Gradient error          =      3.5E-03 Ry/Bohr
     Cell gradient error     =      5.1E+00 kbar

     number of scf cycles    =   3
     number of bfgs steps    =   2

     enthalpy           old  =     -39.6147548092 Ry
     enthalpy           new  =     -39.6150801473 Ry

     CASE: enthalpy          _new < enthalpy          _old

     new trust radius        =       0.0318287156 bohr
     new conv_thr            =       0.0000000003 Ry

     new unit-cell volume =   1020.12861 a.u.^3 (   151.16746 Ang^3 )
     density =      0.60794 g/cm^3

CELL_PARAMETERS (alat=  8.10805891)
   1.008986727   0.000000000  -0.000240579
   0.000000000   1.457623589   0.000000000
  -0.650999607   0.000000000   1.301443146

ATOMIC_POSITIONS (crystal)
B             0.1418691219        0.5435135638        0.6439526309
B             0.8581308781        0.0435135638        0.8560473691
B             0.8581308781        0.4564864362        0.3560473691
B             0.1418691219        0.9564864362        0.1439526309
H             0.3861972535        0.6510083437        0.6713274532
H             0.6138027465        0.1510083437        0.8286725468
H             0.6138027465        0.3489916563        0.3286725468
H             0.3861972535        0.8489916563        0.1713274532
H             0.0882298099        0.4951874871        0.8102024280
H             0.9117701901        0.9951874871        0.6897975720
H             0.9117701901        0.5048125129        0.1897975720
H             0.0882298099        0.0048125129        0.3102024280
H             0.8586809514        0.6316867301        0.4758279239
H             0.1413190486        0.1316867301        0.0241720761
H             0.1413190486        0.3683132699        0.5241720761
H             0.8586809514        0.8683132699        0.9758279239



     Writing config-only to output data dir ./BH3.save/
     NEW-OLD atomic charge density approx. for the potential
     extrapolated charge   24.28970, renormalised to   24.00000

     total cpu time spent up to now is      159.0 secs

     Self-consistent Calculation

     iteration #  1     ecut=   150.00 Ry     beta= 0.70
     Davidson diagonalization with overlap
     ethr =  1.00E-06,  avg # of iterations =  3.0

     total cpu time spent up to now is      164.6 secs

     total energy              =     -39.61319373 Ry
     estimated scf accuracy    <       0.00118714 Ry

     iteration #  2     ecut=   150.00 Ry     beta= 0.70
     Davidson diagonalization with overlap
     ethr =  4.95E-06,  avg # of iterations =  3.1

     total cpu time spent up to now is      169.9 secs

     total energy              =     -39.61564229 Ry
     estimated scf accuracy    <       0.00328297 Ry

     iteration #  3     ecut=   150.00 Ry     beta= 0.70
     Davidson diagonalization with overlap
     ethr =  4.95E-06,  avg # of iterations =  2.0

     total cpu time spent up to now is      173.8 secs

     total energy              =     -39.61527488 Ry
     estimated scf accuracy    <       0.00085303 Ry

     iteration #  4     ecut=   150.00 Ry     beta= 0.70
     Davidson diagonalization with overlap
     ethr =  3.55E-06,  avg # of iterations =  2.0

     total cpu time spent up to now is      178.2 secs

     total energy              =     -39.61549640 Ry
     estimated scf accuracy    <       0.00002156 Ry

     iteration #  5     ecut=   150.00 Ry     beta= 0.70
     Davidson diagonalization with overlap
     ethr =  8.98E-08,  avg # of iterations =  1.1

     total cpu time spent up to now is      181.5 secs

     total energy              =     -39.61549611 Ry
     estimated scf accuracy    <       0.00000335 Ry

     iteration #  6     ecut=   150.00 Ry     beta= 0.70
     Davidson diagonalization with overlap
     ethr =  1.40E-08,  avg # of iterations =  2.0

     total cpu time spent up to now is      185.7 secs

     total energy              =     -39.61549691 Ry
     estimated scf accuracy    <       0.00000008 Ry

     iteration #  7     ecut=   150.00 Ry     beta= 0.70
     Davidson diagonalization with overlap
     ethr =  3.50E-10,  avg # of iterations =  1.9

     total cpu time spent up to now is      189.4 secs

     total energy              =     -39.61549692 Ry
     estimated scf accuracy    <          6.5E-09 Ry

     iteration #  8     ecut=   150.00 Ry     beta= 0.70
     Davidson diagonalization with overlap
     ethr =  2.69E-11,  avg # of iterations =  2.0

     total cpu time spent up to now is      194.0 secs

     total energy              =     -39.61549692 Ry
     estimated scf accuracy    <          2.1E-09 Ry

     iteration #  9     ecut=   150.00 Ry     beta= 0.70
     Davidson diagonalization with overlap
     ethr =  8.82E-12,  avg # of iterations =  1.0

     total cpu time spent up to now is      197.3 secs

     total energy              =     -39.61549692 Ry
     estimated scf accuracy    <          6.5E-10 Ry

     iteration # 10     ecut=   150.00 Ry     beta= 0.70
     Davidson diagonalization with overlap
     ethr =  2.70E-12,  avg # of iterations =  2.0

     total cpu time spent up to now is      201.6 secs

     End of self-consistent calculation

     Number of k-points >= 100: set verbosity='high' to print the bands.

     the Fermi energy is     1.0239 ev

!    total energy              =     -39.61549692 Ry
     estimated scf accuracy    <          1.5E-11 Ry
     smearing contrib. (-TS)   =      -0.00000000 Ry
     internal energy E=F+TS    =     -39.61549692 Ry

     The total energy is F=E-TS. E is the sum of the following terms:
     one-electron contribution =     -16.76492124 Ry
     hartree contribution      =      13.68407049 Ry
     xc contribution           =     -20.18493140 Ry
     ewald contribution        =     -16.34971476 Ry

     convergence has been achieved in  10 iterations

     Forces acting on atoms (cartesian axes, Ry/au):

     atom    1 type  1   force =    -0.00012539   -0.00041675   -0.00093846
     atom    2 type  1   force =     0.00012539   -0.00041675    0.00093846
     atom    3 type  1   force =     0.00012539    0.00041675    0.00093846
     atom    4 type  1   force =    -0.00012539    0.00041675   -0.00093846
     atom    5 type  2   force =    -0.00446700   -0.00313083   -0.00104397
     atom    6 type  2   force =     0.00446700   -0.00313083    0.00104397
     atom    7 type  2   force =     0.00446700    0.00313083    0.00104397
     atom    8 type  2   force =    -0.00446700    0.00313083   -0.00104397
     atom    9 type  2   force =     0.00298745    0.00088647   -0.00393848
     atom   10 type  2   force =    -0.00298745    0.00088647    0.00393848
     atom   11 type  2   force =    -0.00298745   -0.00088647    0.00393848
     atom   12 type  2   force =     0.00298745   -0.00088647   -0.00393848
     atom   13 type  2   force =     0.00260588   -0.00408667    0.00045298
     atom   14 type  2   force =    -0.00260588   -0.00408667   -0.00045298
     atom   15 type  2   force =    -0.00260588    0.00408667   -0.00045298
     atom   16 type  2   force =     0.00260588    0.00408667    0.00045298

     Total force =     0.017982     Total SCF correction =     0.000003


     Computing stress (Cartesian axis) and pressure

          total   stress  (Ry/bohr**3)                   (kbar)     P=       -0.40
  -0.00000395   0.00000000  -0.00000005           -0.58        0.00       -0.01
   0.00000000   0.00000901   0.00000000            0.00        1.33        0.00
  -0.00000005   0.00000000  -0.00001327           -0.01        0.00       -1.95

     Energy error            =      4.2E-04 Ry
     Gradient error          =      4.5E-03 Ry/Bohr
     Cell gradient error     =      2.0E+00 kbar

     number of scf cycles    =   4
     number of bfgs steps    =   3

     enthalpy           old  =     -39.6150801473 Ry
     enthalpy           new  =     -39.6154969174 Ry

     CASE: enthalpy          _new < enthalpy          _old

     new trust radius        =       0.0350491402 bohr
     new conv_thr            =       0.0000000004 Ry

     new unit-cell volume =   1033.43520 a.u.^3 (   153.13930 Ang^3 )
     density =      0.60011 g/cm^3

CELL_PARAMETERS (alat=  8.10805891)
   1.013188907   0.000000000  -0.000272478
   0.000000000   1.465621293   0.000000000
  -0.653750454   0.000000000   1.305806563

ATOMIC_POSITIONS (crystal)
B             0.1415778519        0.5433516473        0.6436056548
B             0.8584221481        0.0433516473        0.8563943452
B             0.8584221481        0.4566483527        0.3563943452
B             0.1415778519        0.9566483527        0.1436056548
H             0.3849826537        0.6505214802        0.6711863238
H             0.6150173463        0.1505214802        0.8288136762
H             0.6150173463        0.3494785198        0.3288136762
H             0.3849826537        0.8494785198        0.1711863238
H             0.0886319493        0.4952785773        0.8095487097
H             0.9113680507        0.9952785773        0.6904512903
H             0.9113680507        0.5047214227        0.1904512903
H             0.0886319493        0.0047214227        0.3095487097
H             0.8590488641        0.6313698062        0.4758223673
H             0.1409511359        0.1313698062        0.0241776327
H             0.1409511359        0.3686301938        0.5241776327
H             0.8590488641        0.8686301938        0.9758223673



     Writing config-only to output data dir ./BH3.save/
     NEW-OLD atomic charge density approx. for the potential
     extrapolated charge   24.30901, renormalised to   24.00000

     total cpu time spent up to now is      204.8 secs

     Self-consistent Calculation

     iteration #  1     ecut=   150.00 Ry     beta= 0.70
     Davidson diagonalization with overlap
     ethr =  1.00E-06,  avg # of iterations =  3.4

     total cpu time spent up to now is      210.5 secs

     total energy              =     -39.61355454 Ry
     estimated scf accuracy    <       0.00108414 Ry

     iteration #  2     ecut=   150.00 Ry     beta= 0.70
     Davidson diagonalization with overlap
     ethr =  4.52E-06,  avg # of iterations =  3.1

     total cpu time spent up to now is      216.0 secs

     total energy              =     -39.61619586 Ry
     estimated scf accuracy    <       0.00363506 Ry

     iteration #  3     ecut=   150.00 Ry     beta= 0.70
     Davidson diagonalization with overlap
     ethr =  4.52E-06,  avg # of iterations =  2.0

     total cpu time spent up to now is      220.0 secs

     total energy              =     -39.61569742 Ry
     estimated scf accuracy    <       0.00105624 Ry

     iteration #  4     ecut=   150.00 Ry     beta= 0.70
     Davidson diagonalization with overlap
     ethr =  4.40E-06,  avg # of iterations =  2.0

     total cpu time spent up to now is      224.4 secs

     total energy              =     -39.61597337 Ry
     estimated scf accuracy    <       0.00003175 Ry

     iteration #  5     ecut=   150.00 Ry     beta= 0.70
     Davidson diagonalization with overlap
     ethr =  1.32E-07,  avg # of iterations =  1.7

     total cpu time spent up to now is      227.9 secs

     total energy              =     -39.61597628 Ry
     estimated scf accuracy    <       0.00000133 Ry

     iteration #  6     ecut=   150.00 Ry     beta= 0.70
     Davidson diagonalization with overlap
     ethr =  5.52E-09,  avg # of iterations =  2.4

     total cpu time spent up to now is      232.2 secs

     total energy              =     -39.61597672 Ry
     estimated scf accuracy    <       0.00000012 Ry

     iteration #  7     ecut=   150.00 Ry     beta= 0.70
     Davidson diagonalization with overlap
     ethr =  5.18E-10,  avg # of iterations =  2.0

     total cpu time spent up to now is      236.2 secs

     total energy              =     -39.61597673 Ry
     estimated scf accuracy    <          2.5E-09 Ry

     iteration #  8     ecut=   150.00 Ry     beta= 0.70
     Davidson diagonalization with overlap
     ethr =  1.03E-11,  avg # of iterations =  2.0

     total cpu time spent up to now is      240.5 secs

     total energy              =     -39.61597673 Ry
     estimated scf accuracy    <          1.9E-09 Ry

     iteration #  9     ecut=   150.00 Ry     beta= 0.70
     Davidson diagonalization with overlap
     ethr =  7.89E-12,  avg # of iterations =  1.0

     total cpu time spent up to now is      243.9 secs

     total energy              =     -39.61597673 Ry
     estimated scf accuracy    <          5.6E-10 Ry

     iteration # 10     ecut=   150.00 Ry     beta= 0.70
     Davidson diagonalization with overlap
     ethr =  2.35E-12,  avg # of iterations =  2.0

     total cpu time spent up to now is      248.2 secs

     End of self-consistent calculation

     Number of k-points >= 100: set verbosity='high' to print the bands.

     the Fermi energy is     0.9552 ev

!    total energy              =     -39.61597673 Ry
     estimated scf accuracy    <          3.6E-11 Ry
     smearing contrib. (-TS)   =      -0.00000000 Ry
     internal energy E=F+TS    =     -39.61597673 Ry

     The total energy is F=E-TS. E is the sum of the following terms:
     one-electron contribution =     -17.16214596 Ry
     hartree contribution      =      13.83561164 Ry
     xc contribution           =     -20.17241267 Ry
     ewald contribution        =     -16.11702975 Ry

     convergence has been achieved in  10 iterations

     Forces acting on atoms (cartesian axes, Ry/au):

     atom    1 type  1   force =    -0.00032174   -0.00060891   -0.00144672
     atom    2 type  1   force =     0.00032174   -0.00060891    0.00144672
     atom    3 type  1   force =     0.00032174    0.00060891    0.00144672
     atom    4 type  1   force =    -0.00032174    0.00060891   -0.00144672
     atom    5 type  2   force =    -0.00475505   -0.00353889   -0.00145771
     atom    6 type  2   force =     0.00475505   -0.00353889    0.00145771
     atom    7 type  2   force =     0.00475505    0.00353889    0.00145771
     atom    8 type  2   force =    -0.00475505    0.00353889   -0.00145771
     atom    9 type  2   force =     0.00300720    0.00088172   -0.00439317
     atom   10 type  2   force =    -0.00300720    0.00088172    0.00439317
     atom   11 type  2   force =    -0.00300720   -0.00088172    0.00439317
     atom   12 type  2   force =     0.00300720   -0.00088172   -0.00439317
     atom   13 type  2   force =     0.00335918   -0.00557915    0.00062589
     atom   14 type  2   force =    -0.00335918   -0.00557915   -0.00062589
     atom   15 type  2   force =    -0.00335918    0.00557915   -0.00062589
     atom   16 type  2   force =     0.00335918    0.00557915    0.00062589

     Total force =     0.021142     Total SCF correction =     0.000005


     Computing stress (Cartesian axis) and pressure

          total   stress  (Ry/bohr**3)                   (kbar)     P=       -2.42
  -0.00001347   0.00000000  -0.00000370           -1.98        0.00       -0.54
   0.00000000  -0.00000760   0.00000000            0.00       -1.12        0.00
  -0.00000370   0.00000000  -0.00002838           -0.54        0.00       -4.17

     Energy error            =      4.8E-04 Ry
     Gradient error          =      5.6E-03 Ry/Bohr
     Cell gradient error     =      4.2E+00 kbar

     number of scf cycles    =   5
     number of bfgs steps    =   4

     enthalpy           old  =     -39.6154969174 Ry
     enthalpy           new  =     -39.6159767336 Ry

     CASE: enthalpy          _new < enthalpy          _old

     new trust radius        =       0.0526267329 bohr
     new conv_thr            =       0.0000000005 Ry

     new unit-cell volume =   1053.48727 a.u.^3 (   156.11071 Ang^3 )
     density =      0.58869 g/cm^3

CELL_PARAMETERS (alat=  8.10805891)
   1.019576109   0.000000000  -0.000444207
   0.000000000   1.477617848   0.000000000
  -0.658091084   0.000000000   1.312174917

ATOMIC_POSITIONS (crystal)
B             0.1410481657        0.5430724844        0.6429956355
B             0.8589518343        0.0430724844        0.8570043645
B             0.8589518343        0.4569275156        0.3570043645
B             0.1410481657        0.9569275156        0.1429956355
H             0.3829136321        0.6496754127        0.6708983566
H             0.6170863679        0.1496754127        0.8291016434
H             0.6170863679        0.3503245873        0.3291016434
H             0.3829136321        0.8503245873        0.1708983566
H             0.0892475125        0.4954285138        0.8084172803
H             0.9107524875        0.9954285138        0.6915827197
H             0.9107524875        0.5045714862        0.1915827197
H             0.0892475125        0.0045714862        0.3084172803
H             0.8597961480        0.6306679658        0.4758373049
H             0.1402038520        0.1306679658        0.0241626951
H             0.1402038520        0.3693320342        0.5241626951
H             0.8597961480        0.8693320342        0.9758373049



     Writing config-only to output data dir ./BH3.save/
     NEW-OLD atomic charge density approx. for the potential
     extrapolated charge   24.45679, renormalised to   24.00000

     total cpu time spent up to now is      251.4 secs

     Self-consistent Calculation

     iteration #  1     ecut=   150.00 Ry     beta= 0.70
     Davidson diagonalization with overlap
     ethr =  1.00E-06,  avg # of iterations =  5.4

     total cpu time spent up to now is      257.9 secs

     total energy              =     -39.61159326 Ry
     estimated scf accuracy    <       0.00209527 Ry

     iteration #  2     ecut=   150.00 Ry     beta= 0.70
     Davidson diagonalization with overlap
     ethr =  8.73E-06,  avg # of iterations =  3.4

     total cpu time spent up to now is      263.5 secs

     total energy              =     -39.61728958 Ry
     estimated scf accuracy    <       0.00796779 Ry

     iteration #  3     ecut=   150.00 Ry     beta= 0.70
     Davidson diagonalization with overlap
     ethr =  8.73E-06,  avg # of iterations =  2.0

     total cpu time spent up to now is      267.6 secs

     total energy              =     -39.61608237 Ry
     estimated scf accuracy    <       0.00247780 Ry

     iteration #  4     ecut=   150.00 Ry     beta= 0.70
     Davidson diagonalization with overlap
     ethr =  8.73E-06,  avg # of iterations =  2.0

     total cpu time spent up to now is      272.1 secs

     total energy              =     -39.61671670 Ry
     estimated scf accuracy    <       0.00006552 Ry

     iteration #  5     ecut=   150.00 Ry     beta= 0.70
     Davidson diagonalization with overlap
     ethr =  2.73E-07,  avg # of iterations =  2.0

     total cpu time spent up to now is      276.0 secs

     total energy              =     -39.61672691 Ry
     estimated scf accuracy    <       0.00000044 Ry

     iteration #  6     ecut=   150.00 Ry     beta= 0.70
     Davidson diagonalization with overlap
     ethr =  1.83E-09,  avg # of iterations =  3.0

     total cpu time spent up to now is      281.2 secs

     total energy              =     -39.61672709 Ry
     estimated scf accuracy    <       0.00000038 Ry

     iteration #  7     ecut=   150.00 Ry     beta= 0.70
     Davidson diagonalization with overlap
     ethr =  1.57E-09,  avg # of iterations =  1.0

     total cpu time spent up to now is      284.5 secs

     total energy              =     -39.61672710 Ry
     estimated scf accuracy    <       0.00000004 Ry

     iteration #  8     ecut=   150.00 Ry     beta= 0.70
     Davidson diagonalization with overlap
     ethr =  1.74E-10,  avg # of iterations =  2.0

     total cpu time spent up to now is      288.7 secs

     total energy              =     -39.61672711 Ry
     estimated scf accuracy    <          4.9E-10 Ry

     iteration #  9     ecut=   150.00 Ry     beta= 0.70
     Davidson diagonalization with overlap
     ethr =  2.03E-12,  avg # of iterations =  2.0

     total cpu time spent up to now is      293.0 secs

     total energy              =     -39.61672711 Ry
     estimated scf accuracy    <          6.0E-10 Ry

     iteration # 10     ecut=   150.00 Ry     beta= 0.70
     Davidson diagonalization with overlap
     ethr =  2.03E-12,  avg # of iterations =  2.0

     total cpu time spent up to now is      297.3 secs

     End of self-consistent calculation

     Number of k-points >= 100: set verbosity='high' to print the bands.

     the Fermi energy is     0.8564 ev

!    total energy              =     -39.61672711 Ry
     estimated scf accuracy    <          3.6E-12 Ry
     smearing contrib. (-TS)   =      -0.00000000 Ry
     internal energy E=F+TS    =     -39.61672711 Ry

     The total energy is F=E-TS. E is the sum of the following terms:
     one-electron contribution =     -17.83142601 Ry
     hartree contribution      =      14.10041550 Ry
     xc contribution           =     -20.16234805 Ry
     ewald contribution        =     -15.72336855 Ry

     convergence has been achieved in  10 iterations

     Forces acting on atoms (cartesian axes, Ry/au):

     atom    1 type  1   force =    -0.00054659   -0.00075250   -0.00167645
     atom    2 type  1   force =     0.00054659   -0.00075250    0.00167645
     atom    3 type  1   force =     0.00054659    0.00075250    0.00167645
     atom    4 type  1   force =    -0.00054659    0.00075250   -0.00167645
     atom    5 type  2   force =    -0.00454770   -0.00369542   -0.00195838
     atom    6 type  2   force =     0.00454770   -0.00369542    0.00195838
     atom    7 type  2   force =     0.00454770    0.00369542    0.00195838
     atom    8 type  2   force =    -0.00454770    0.00369542   -0.00195838
     atom    9 type  2   force =     0.00265933    0.00070095   -0.00457189
     atom   10 type  2   force =    -0.00265933    0.00070095    0.00457189
     atom   11 type  2   force =    -0.00265933   -0.00070095    0.00457189
     atom   12 type  2   force =     0.00265933   -0.00070095   -0.00457189
     atom   13 type  2   force =     0.00385840   -0.00681941    0.00073431
     atom   14 type  2   force =    -0.00385840   -0.00681941   -0.00073431
     atom   15 type  2   force =    -0.00385840    0.00681941   -0.00073431
     atom   16 type  2   force =     0.00385840    0.00681941    0.00073431

     Total force =     0.023000     Total SCF correction =     0.000001


     Computing stress (Cartesian axis) and pressure

          total   stress  (Ry/bohr**3)                   (kbar)     P=       -3.92
  -0.00001784   0.00000000  -0.00000831           -2.62        0.00       -1.22
   0.00000000  -0.00002221   0.00000000            0.00       -3.27        0.00
  -0.00000831   0.00000000  -0.00003987           -1.22        0.00       -5.87

     Energy error            =      7.5E-04 Ry
     Gradient error          =      6.8E-03 Ry/Bohr
     Cell gradient error     =      5.9E+00 kbar

     number of scf cycles    =   6
     number of bfgs steps    =   5

     enthalpy           old  =     -39.6159767336 Ry
     enthalpy           new  =     -39.6167271063 Ry

     CASE: enthalpy          _new < enthalpy          _old

     new trust radius        =       0.0790551793 bohr
     new conv_thr            =       0.0000000007 Ry

     new unit-cell volume =   1084.08830 a.u.^3 (   160.64531 Ang^3 )
     density =      0.57207 g/cm^3

CELL_PARAMETERS (alat=  8.10805891)
   1.029383850   0.000000000  -0.000887595
   0.000000000   1.495612681   0.000000000
  -0.664989191   0.000000000   1.321617999

ATOMIC_POSITIONS (crystal)
B             0.1401668643        0.5426180340        0.6420185788
B             0.8598331357        0.0426180340        0.8579814212
B             0.8598331357        0.4573819660        0.3579814212
B             0.1401668643        0.9573819660        0.1420185788
H             0.3795851947        0.6482931517        0.6703588235
H             0.6204148053        0.1482931517        0.8296411765
H             0.6204148053        0.3517068483        0.3296411765
H             0.3795851947        0.8517068483        0.1703588235
H             0.0901425058        0.4956487821        0.8065688565
H             0.9098574942        0.9956487821        0.6934311435
H             0.9098574942        0.5043512179        0.1934311435
H             0.0901425058        0.0043512179        0.3065688565
H             0.8611085315        0.6293631491        0.4758801689
H             0.1388914685        0.1293631491        0.0241198311
H             0.1388914685        0.3706368509        0.5241198311
H             0.8611085315        0.8706368509        0.9758801689



     Writing config-only to output data dir ./BH3.save/
     NEW-OLD atomic charge density approx. for the potential
     extrapolated charge   24.67742, renormalised to   24.00000

     total cpu time spent up to now is      300.5 secs

     Self-consistent Calculation

     iteration #  1     ecut=   150.00 Ry     beta= 0.70
     Davidson diagonalization with overlap
     ethr =  1.00E-06,  avg # of iterations =  6.6

     total cpu time spent up to now is      308.0 secs

     total energy              =     -39.60648468 Ry
     estimated scf accuracy    <       0.00432497 Ry

     iteration #  2     ecut=   150.00 Ry     beta= 0.70
     Davidson diagonalization with overlap
     ethr =  1.80E-05,  avg # of iterations =  3.5

     total cpu time spent up to now is      313.8 secs

     total energy              =     -39.61922792 Ry
     estimated scf accuracy    <       0.01801742 Ry

     iteration #  3     ecut=   150.00 Ry     beta= 0.70
     Davidson diagonalization with overlap
     ethr =  1.80E-05,  avg # of iterations =  2.0

     total cpu time spent up to now is      317.9 secs

     total energy              =     -39.61630897 Ry
     estimated scf accuracy    <       0.00588979 Ry

     iteration #  4     ecut=   150.00 Ry     beta= 0.70
     Davidson diagonalization with overlap
     ethr =  1.80E-05,  avg # of iterations =  2.0

     total cpu time spent up to now is      322.4 secs

     total energy              =     -39.61779039 Ry
     estimated scf accuracy    <       0.00013020 Ry

     iteration #  5     ecut=   150.00 Ry     beta= 0.70
     Davidson diagonalization with overlap
     ethr =  5.42E-07,  avg # of iterations =  2.1

     total cpu time spent up to now is      326.6 secs

     total energy              =     -39.61781236 Ry
     estimated scf accuracy    <       0.00000116 Ry

     iteration #  6     ecut=   150.00 Ry     beta= 0.70
     Davidson diagonalization with overlap
     ethr =  4.85E-09,  avg # of iterations =  2.1

     total cpu time spent up to now is      330.9 secs

     total energy              =     -39.61781268 Ry
     estimated scf accuracy    <       0.00000112 Ry

     iteration #  7     ecut=   150.00 Ry     beta= 0.70
     Davidson diagonalization with overlap
     ethr =  4.67E-09,  avg # of iterations =  1.9

     total cpu time spent up to now is      334.5 secs

     total energy              =     -39.61781273 Ry
     estimated scf accuracy    <       0.00000009 Ry

     iteration #  8     ecut=   150.00 Ry     beta= 0.70
     Davidson diagonalization with overlap
     ethr =  3.95E-10,  avg # of iterations =  2.0

     total cpu time spent up to now is      338.8 secs

     total energy              =     -39.61781276 Ry
     estimated scf accuracy    <          2.1E-09 Ry

     iteration #  9     ecut=   150.00 Ry     beta= 0.70
     Davidson diagonalization with overlap
     ethr =  8.78E-12,  avg # of iterations =  2.0

     total cpu time spent up to now is      343.0 secs

     End of self-consistent calculation

     Number of k-points >= 100: set verbosity='high' to print the bands.

     the Fermi energy is     0.7144 ev

!    total energy              =     -39.61781276 Ry
     estimated scf accuracy    <          6.3E-10 Ry
     smearing contrib. (-TS)   =       0.00000000 Ry
     internal energy E=F+TS    =     -39.61781276 Ry

     The total energy is F=E-TS. E is the sum of the following terms:
     one-electron contribution =     -18.91133048 Ry
     hartree contribution      =      14.53767801 Ry
     xc contribution           =     -20.15605090 Ry
     ewald contribution        =     -15.08810939 Ry

     convergence has been achieved in   9 iterations

     Forces acting on atoms (cartesian axes, Ry/au):

     atom    1 type  1   force =    -0.00072809   -0.00077269   -0.00161230
     atom    2 type  1   force =     0.00072809   -0.00077269    0.00161230
     atom    3 type  1   force =     0.00072809    0.00077269    0.00161230
     atom    4 type  1   force =    -0.00072809    0.00077269   -0.00161230
     atom    5 type  2   force =    -0.00372089   -0.00352279   -0.00254422
     atom    6 type  2   force =     0.00372089   -0.00352279    0.00254422
     atom    7 type  2   force =     0.00372089    0.00352279    0.00254422
     atom    8 type  2   force =    -0.00372089    0.00352279   -0.00254422
     atom    9 type  2   force =     0.00180584    0.00027721   -0.00434836
     atom   10 type  2   force =    -0.00180584    0.00027721    0.00434836
     atom   11 type  2   force =    -0.00180584   -0.00027721    0.00434836
     atom   12 type  2   force =     0.00180584   -0.00027721   -0.00434836
     atom   13 type  2   force =     0.00395328   -0.00758412    0.00075854
     atom   14 type  2   force =    -0.00395328   -0.00758412   -0.00075854
     atom   15 type  2   force =    -0.00395328    0.00758412   -0.00075854
     atom   16 type  2   force =     0.00395328    0.00758412    0.00075854

     Total force =     0.023015     Total SCF correction =     0.000020


     Computing stress (Cartesian axis) and pressure

          total   stress  (Ry/bohr**3)                   (kbar)     P=       -4.65
  -0.00001551   0.00000000  -0.00001395           -2.28        0.00       -2.05
   0.00000000  -0.00003297   0.00000000            0.00       -4.85        0.00
  -0.00001395   0.00000000  -0.00004628           -2.05        0.00       -6.81

     Energy error            =      1.1E-03 Ry
     Gradient error          =      7.6E-03 Ry/Bohr
     Cell gradient error     =      6.8E+00 kbar

     number of scf cycles    =   7
     number of bfgs steps    =   6

     enthalpy           old  =     -39.6167271063 Ry
     enthalpy           new  =     -39.6178127599 Ry

     CASE: enthalpy          _new < enthalpy          _old

     new trust radius        =       0.1188453680 bohr
     new conv_thr            =       0.0000000008 Ry

     new unit-cell volume =   1131.34569 a.u.^3 (   167.64813 Ang^3 )
     density =      0.54818 g/cm^3

CELL_PARAMETERS (alat=  8.10805891)
   1.044544376   0.000000000  -0.001857558
   0.000000000   1.522604930   0.000000000
  -0.676022203   0.000000000   1.335738878

ATOMIC_POSITIONS (crystal)
B             0.1387679446        0.5419075850        0.6405165674
B             0.8612320554        0.0419075850        0.8594834326
B             0.8612320554        0.4580924150        0.3594834326
B             0.1387679446        0.9580924150        0.1405165674
H             0.3743814967        0.6461002449        0.6693829251
H             0.6256185033        0.1461002449        0.8306170749
H             0.6256185033        0.3538997551        0.3306170749
H             0.3743814967        0.8538997551        0.1693829251
H             0.0913815871        0.4959416258        0.8036370339
H             0.9086184129        0.9959416258        0.6963629661
H             0.9086184129        0.5040583742        0.1963629661
H             0.0913815871        0.0040583742        0.3036370339
H             0.8632694104        0.6271031054        0.4759634341
H             0.1367305896        0.1271031054        0.0240365659
H             0.1367305896        0.3728968946        0.5240365659
H             0.8632694104        0.8728968946        0.9759634341



     Writing config-only to output data dir ./BH3.save/
     NEW-OLD atomic charge density approx. for the potential
     extrapolated charge   25.00245, renormalised to   24.00000

     total cpu time spent up to now is      346.3 secs

     Self-consistent Calculation

     iteration #  1     ecut=   150.00 Ry     beta= 0.70
     Davidson diagonalization with overlap
     ethr =  1.00E-06,  avg # of iterations =  8.4

     total cpu time spent up to now is      354.8 secs

     total energy              =     -39.59379325 Ry
     estimated scf accuracy    <       0.00912384 Ry

     iteration #  2     ecut=   150.00 Ry     beta= 0.70
     Davidson diagonalization with overlap
     ethr =  3.80E-05,  avg # of iterations =  3.8

     total cpu time spent up to now is      360.7 secs

     total energy              =     -39.62276449 Ry
     estimated scf accuracy    <       0.04120265 Ry

     iteration #  3     ecut=   150.00 Ry     beta= 0.70
     Davidson diagonalization with overlap
     ethr =  3.80E-05,  avg # of iterations =  2.0

     total cpu time spent up to now is      364.8 secs

     total energy              =     -39.61577680 Ry
     estimated scf accuracy    <       0.01407460 Ry

     iteration #  4     ecut=   150.00 Ry     beta= 0.70
     Davidson diagonalization with overlap
     ethr =  3.80E-05,  avg # of iterations =  2.0

     total cpu time spent up to now is      369.4 secs

     total energy              =     -39.61918368 Ry
     estimated scf accuracy    <       0.00020453 Ry

     iteration #  5     ecut=   150.00 Ry     beta= 0.70
     Davidson diagonalization with overlap
     ethr =  8.52E-07,  avg # of iterations =  2.5

     total cpu time spent up to now is      373.8 secs

     total energy              =     -39.61921934 Ry
     estimated scf accuracy    <       0.00000545 Ry

     iteration #  6     ecut=   150.00 Ry     beta= 0.70
     Davidson diagonalization with overlap
     ethr =  2.27E-08,  avg # of iterations =  2.0

     total cpu time spent up to now is      378.1 secs

     total energy              =     -39.61922074 Ry
     estimated scf accuracy    <       0.00000251 Ry

     iteration #  7     ecut=   150.00 Ry     beta= 0.70
     Davidson diagonalization with overlap
     ethr =  1.05E-08,  avg # of iterations =  1.4

     total cpu time spent up to now is      381.5 secs

     total energy              =     -39.61922079 Ry
     estimated scf accuracy    <       0.00000026 Ry

     iteration #  8     ecut=   150.00 Ry     beta= 0.70
     Davidson diagonalization with overlap
     ethr =  1.08E-09,  avg # of iterations =  2.0

     total cpu time spent up to now is      385.8 secs

     total energy              =     -39.61922088 Ry
     estimated scf accuracy    <          8.9E-09 Ry

     iteration #  9     ecut=   150.00 Ry     beta= 0.70
     Davidson diagonalization with overlap
     ethr =  3.70E-11,  avg # of iterations =  2.0

     total cpu time spent up to now is      390.0 secs

     End of self-consistent calculation

     Number of k-points >= 100: set verbosity='high' to print the bands.

     the Fermi energy is     0.5108 ev

!    total energy              =     -39.61922089 Ry
     estimated scf accuracy    <          2.8E-10 Ry
     smearing contrib. (-TS)   =       0.00000000 Ry
     internal energy E=F+TS    =     -39.61922089 Ry

     The total energy is F=E-TS. E is the sum of the following terms:
     one-electron contribution =     -20.62006340 Ry
     hartree contribution      =      15.24343718 Ry
     xc contribution           =     -20.15696301 Ry
     ewald contribution        =     -14.08563166 Ry

     convergence has been achieved in   9 iterations

     Forces acting on atoms (cartesian axes, Ry/au):

     atom    1 type  1   force =    -0.00086955   -0.00062116   -0.00113931
     atom    2 type  1   force =     0.00086955   -0.00062116    0.00113931
     atom    3 type  1   force =     0.00086955    0.00062116    0.00113931
     atom    4 type  1   force =    -0.00086955    0.00062116   -0.00113931
     atom    5 type  2   force =    -0.00198236   -0.00280498   -0.00316253
     atom    6 type  2   force =     0.00198236   -0.00280498    0.00316253
     atom    7 type  2   force =     0.00198236    0.00280498    0.00316253
     atom    8 type  2   force =    -0.00198236    0.00280498   -0.00316253
     atom    9 type  2   force =     0.00027897   -0.00046840   -0.00353634
     atom   10 type  2   force =    -0.00027897   -0.00046840    0.00353634
     atom   11 type  2   force =    -0.00027897    0.00046840    0.00353634
     atom   12 type  2   force =     0.00027897    0.00046840   -0.00353634
     atom   13 type  2   force =     0.00332547   -0.00735796    0.00065239
     atom   14 type  2   force =    -0.00332547   -0.00735796   -0.00065239
     atom   15 type  2   force =    -0.00332547    0.00735796   -0.00065239
     atom   16 type  2   force =     0.00332547    0.00735796    0.00065239

     Total force =     0.020265     Total SCF correction =     0.000007


     Computing stress (Cartesian axis) and pressure

          total   stress  (Ry/bohr**3)                   (kbar)     P=       -4.07
  -0.00000331   0.00000000  -0.00002000           -0.49        0.00       -2.94
   0.00000000  -0.00003527   0.00000000            0.00       -5.19        0.00
  -0.00002000   0.00000000  -0.00004446           -2.94        0.00       -6.54

     Energy error            =      1.4E-03 Ry
     Gradient error          =      7.4E-03 Ry/Bohr
     Cell gradient error     =      6.5E+00 kbar

     number of scf cycles    =   8
     number of bfgs steps    =   7

     enthalpy           old  =     -39.6178127599 Ry
     enthalpy           new  =     -39.6192208852 Ry

     CASE: enthalpy          _new < enthalpy          _old

     new trust radius        =       0.1788836966 bohr
     new conv_thr            =       0.0000000007 Ry

     new unit-cell volume =   1205.37512 a.u.^3 (   178.61816 Ang^3 )
     density =      0.51451 g/cm^3

CELL_PARAMETERS (alat=  8.10805891)
   1.068139875   0.000000000  -0.003834122
   0.000000000   1.563093304   0.000000000
  -0.693803575   0.000000000   1.356926481

ATOMIC_POSITIONS (crystal)
B             0.1366025106        0.5408278856        0.6382798289
B             0.8633974894        0.0408278856        0.8617201711
B             0.8633974894        0.4591721144        0.3617201711
B             0.1366025106        0.9591721144        0.1382798289
H             0.3664351967        0.6426992735        0.6676402479
H             0.6335648033        0.1426992735        0.8323597521
H             0.6335648033        0.3573007265        0.3323597521
H             0.3664351967        0.8573007265        0.1676402479
H             0.0929751434        0.4962732998        0.7990747105
H             0.9070248566        0.9962732998        0.7009252895
H             0.9070248566        0.5037267002        0.2009252895
H             0.0929751434        0.0037267002        0.2990747105
H             0.8666703882        0.6233489494        0.4761043924
H             0.1333296118        0.1233489494        0.0238956076
H             0.1333296118        0.3766510506        0.5238956076
H             0.8666703882        0.8766510506        0.9761043924



     Writing config-only to output data dir ./BH3.save/
     NEW-OLD atomic charge density approx. for the potential
     extrapolated charge   25.47391, renormalised to   24.00000

     total cpu time spent up to now is      393.3 secs

     Self-consistent Calculation

     iteration #  1     ecut=   150.00 Ry     beta= 0.70
     Davidson diagonalization with overlap
     ethr =  1.00E-06,  avg # of iterations = 10.4

     total cpu time spent up to now is      402.9 secs

     total energy              =     -39.56274355 Ry
     estimated scf accuracy    <       0.01952990 Ry

     iteration #  2     ecut=   150.00 Ry     beta= 0.70
     Davidson diagonalization with overlap
     ethr =  8.14E-05,  avg # of iterations =  4.0

     total cpu time spent up to now is      408.8 secs

     total energy              =     -39.62957041 Ry
     estimated scf accuracy    <       0.09520808 Ry

     iteration #  3     ecut=   150.00 Ry     beta= 0.70
     Davidson diagonalization with overlap
     ethr =  8.14E-05,  avg # of iterations =  2.0

     total cpu time spent up to now is      413.0 secs

     total energy              =     -39.61312445 Ry
     estimated scf accuracy    <       0.03384189 Ry

     iteration #  4     ecut=   150.00 Ry     beta= 0.70
     Davidson diagonalization with overlap
     ethr =  8.14E-05,  avg # of iterations =  2.0

     total cpu time spent up to now is      417.6 secs

     total energy              =     -39.62064963 Ry
     estimated scf accuracy    <       0.00018299 Ry

     iteration #  5     ecut=   150.00 Ry     beta= 0.70
     Davidson diagonalization with overlap
     ethr =  7.62E-07,  avg # of iterations =  3.0

     total cpu time spent up to now is      422.2 secs

     total energy              =     -39.62066608 Ry
     estimated scf accuracy    <       0.00004895 Ry

     iteration #  6     ecut=   150.00 Ry     beta= 0.70
     Davidson diagonalization with overlap
     ethr =  2.04E-07,  avg # of iterations =  2.0

     total cpu time spent up to now is      426.5 secs

     total energy              =     -39.62067970 Ry
     estimated scf accuracy    <       0.00000685 Ry

     iteration #  7     ecut=   150.00 Ry     beta= 0.70
     Davidson diagonalization with overlap
     ethr =  2.85E-08,  avg # of iterations =  1.9

     total cpu time spent up to now is      430.1 secs

     total energy              =     -39.62068017 Ry
     estimated scf accuracy    <       0.00000042 Ry

     iteration #  8     ecut=   150.00 Ry     beta= 0.70
     Davidson diagonalization with overlap
     ethr =  1.75E-09,  avg # of iterations =  3.0

     total cpu time spent up to now is      434.7 secs

     total energy              =     -39.62068036 Ry
     estimated scf accuracy    <       0.00000005 Ry

     iteration #  9     ecut=   150.00 Ry     beta= 0.70
     Davidson diagonalization with overlap
     ethr =  2.10E-10,  avg # of iterations =  2.0

     total cpu time spent up to now is      438.9 secs

     End of self-consistent calculation

     Number of k-points >= 100: set verbosity='high' to print the bands.

     the Fermi energy is     0.2219 ev

!    total energy              =     -39.62068037 Ry
     estimated scf accuracy    <          1.4E-10 Ry
     smearing contrib. (-TS)   =       0.00000000 Ry
     internal energy E=F+TS    =     -39.62068037 Ry

     The total energy is F=E-TS. E is the sum of the following terms:
     one-electron contribution =     -23.29227320 Ry
     hartree contribution      =      16.36923162 Ry
     xc contribution           =     -20.17145888 Ry
     ewald contribution        =     -12.52617991 Ry

     convergence has been achieved in   9 iterations

     Forces acting on atoms (cartesian axes, Ry/au):

     atom    1 type  1   force =    -0.00084834   -0.00014725   -0.00009683
     atom    2 type  1   force =     0.00084834   -0.00014725    0.00009683
     atom    3 type  1   force =     0.00084834    0.00014725    0.00009683
     atom    4 type  1   force =    -0.00084834    0.00014725   -0.00009683
     atom    5 type  2   force =     0.00101813   -0.00121362   -0.00364221
     atom    6 type  2   force =    -0.00101813   -0.00121362    0.00364221
     atom    7 type  2   force =    -0.00101813    0.00121362    0.00364221
     atom    8 type  2   force =     0.00101813    0.00121362   -0.00364221
     atom    9 type  2   force =    -0.00214518   -0.00162747   -0.00178416
     atom   10 type  2   force =     0.00214518   -0.00162747    0.00178416
     atom   11 type  2   force =     0.00214518    0.00162747    0.00178416
     atom   12 type  2   force =    -0.00214518    0.00162747   -0.00178416
     atom   13 type  2   force =     0.00138731   -0.00511068    0.00034377
     atom   14 type  2   force =    -0.00138731   -0.00511068   -0.00034377
     atom   15 type  2   force =    -0.00138731    0.00511068   -0.00034377
     atom   16 type  2   force =     0.00138731    0.00511068    0.00034377

     Total force =     0.014849     Total SCF correction =     0.000009


     Computing stress (Cartesian axis) and pressure

          total   stress  (Ry/bohr**3)                   (kbar)     P=       -1.40
   0.00002226   0.00000000  -0.00002504            3.28        0.00       -3.68
   0.00000000  -0.00002173   0.00000000            0.00       -3.20        0.00
  -0.00002504   0.00000000  -0.00002916           -3.68        0.00       -4.29

     Energy error            =      1.5E-03 Ry
     Gradient error          =      5.1E-03 Ry/Bohr
     Cell gradient error     =      4.3E+00 kbar

     number of scf cycles    =   9
     number of bfgs steps    =   8

     enthalpy           old  =     -39.6192208852 Ry
     enthalpy           new  =     -39.6206803704 Ry

     CASE: enthalpy          _new < enthalpy          _old

     new trust radius        =       0.1681496244 bohr
     new conv_thr            =       0.0000000005 Ry

     new unit-cell volume =   1278.43090 a.u.^3 (   189.44391 Ang^3 )
     density =      0.48511 g/cm^3

CELL_PARAMETERS (alat=  8.10805891)
   1.091490692   0.000000000  -0.006438221
   0.000000000   1.600945379   0.000000000
  -0.712250408   0.000000000   1.376757088

ATOMIC_POSITIONS (crystal)
B             0.1345599844        0.5398489804        0.6362937362
B             0.8654400156        0.0398489804        0.8637062638
B             0.8654400156        0.4601510196        0.3637062638
B             0.1345599844        0.9601510196        0.1362937362
H             0.3590621241        0.6394710888        0.6656095935
H             0.6409378759        0.1394710888        0.8343904065
H             0.6409378759        0.3605289112        0.3343904065
H             0.3590621241        0.8605289112        0.1656095935
H             0.0939609608        0.4963706894        0.7946959848
H             0.9060390392        0.9963706894        0.7053040152
H             0.9060390392        0.5036293106        0.2053040152
H             0.0939609608        0.0036293106        0.2946959848
H             0.8698553718        0.6195271999        0.4762449287
H             0.1301446282        0.1195271999        0.0237550713
H             0.1301446282        0.3804728001        0.5237550713
H             0.8698553718        0.8804728001        0.9762449287



     Writing config-only to output data dir ./BH3.save/
     NEW-OLD atomic charge density approx. for the potential
     extrapolated charge   25.37141, renormalised to   24.00000

     total cpu time spent up to now is      442.2 secs

     Self-consistent Calculation

     iteration #  1     ecut=   150.00 Ry     beta= 0.70
     Davidson diagonalization with overlap
     c_bands:  1 eigenvalues not converged
     c_bands:  1 eigenvalues not converged
     c_bands:  1 eigenvalues not converged
     ethr =  1.00E-06,  avg # of iterations = 10.5

     total cpu time spent up to now is      451.7 secs

     total energy              =     -39.56694762 Ry
     estimated scf accuracy    <       0.01851579 Ry

     iteration #  2     ecut=   150.00 Ry     beta= 0.70
     Davidson diagonalization with overlap
     ethr =  7.71E-05,  avg # of iterations =  4.2

     total cpu time spent up to now is      457.6 secs

     total energy              =     -39.62962998 Ry
     estimated scf accuracy    <       0.08902245 Ry

     iteration #  3     ecut=   150.00 Ry     beta= 0.70
     Davidson diagonalization with overlap
     ethr =  7.71E-05,  avg # of iterations =  2.0

     total cpu time spent up to now is      461.8 secs

     total energy              =     -39.61452659 Ry
     estimated scf accuracy    <       0.03140835 Ry

     iteration #  4     ecut=   150.00 Ry     beta= 0.70
     Davidson diagonalization with overlap
     ethr =  7.71E-05,  avg # of iterations =  2.0

     total cpu time spent up to now is      466.3 secs

     total energy              =     -39.62137409 Ry
     estimated scf accuracy    <       0.00013782 Ry

     iteration #  5     ecut=   150.00 Ry     beta= 0.70
     Davidson diagonalization with overlap
     ethr =  5.74E-07,  avg # of iterations =  3.4

     total cpu time spent up to now is      471.0 secs

     total energy              =     -39.62137642 Ry
     estimated scf accuracy    <       0.00005177 Ry

     iteration #  6     ecut=   150.00 Ry     beta= 0.70
     Davidson diagonalization with overlap
     ethr =  2.16E-07,  avg # of iterations =  2.0

     total cpu time spent up to now is      475.3 secs

     total energy              =     -39.62139142 Ry
     estimated scf accuracy    <       0.00000675 Ry

     iteration #  7     ecut=   150.00 Ry     beta= 0.70
     Davidson diagonalization with overlap
     ethr =  2.81E-08,  avg # of iterations =  1.0

     total cpu time spent up to now is      478.7 secs

     total energy              =     -39.62139111 Ry
     estimated scf accuracy    <       0.00000119 Ry

     iteration #  8     ecut=   150.00 Ry     beta= 0.70
     Davidson diagonalization with overlap
     ethr =  4.94E-09,  avg # of iterations =  2.0

     total cpu time spent up to now is      483.0 secs

     total energy              =     -39.62139153 Ry
     estimated scf accuracy    <       0.00000013 Ry

     iteration #  9     ecut=   150.00 Ry     beta= 0.70
     Davidson diagonalization with overlap
     ethr =  5.38E-10,  avg # of iterations =  2.0

     total cpu time spent up to now is      487.2 secs

     total energy              =     -39.62139155 Ry
     estimated scf accuracy    <          1.0E-09 Ry

     iteration # 10     ecut=   150.00 Ry     beta= 0.70
     Davidson diagonalization with overlap
     ethr =  4.36E-12,  avg # of iterations =  3.0

     total cpu time spent up to now is      491.8 secs

     End of self-consistent calculation

     Number of k-points >= 100: set verbosity='high' to print the bands.

     the Fermi energy is     0.0676 ev

!    total energy              =     -39.62139155 Ry
     estimated scf accuracy    <          1.4E-11 Ry
     smearing contrib. (-TS)   =       0.00000000 Ry
     internal energy E=F+TS    =     -39.62139155 Ry

     The total energy is F=E-TS. E is the sum of the following terms:
     one-electron contribution =     -25.86227809 Ry
     hartree contribution      =      17.46989070 Ry
     xc contribution           =     -20.19203258 Ry
     ewald contribution        =     -11.03697158 Ry

     convergence has been achieved in  10 iterations

     Forces acting on atoms (cartesian axes, Ry/au):

     atom    1 type  1   force =    -0.00039669    0.00056052    0.00130732
     atom    2 type  1   force =     0.00039669    0.00056052   -0.00130732
     atom    3 type  1   force =     0.00039669   -0.00056052   -0.00130732
     atom    4 type  1   force =    -0.00039669   -0.00056052    0.00130732
     atom    5 type  2   force =     0.00334940    0.00031027   -0.00347900
     atom    6 type  2   force =    -0.00334940    0.00031027    0.00347900
     atom    7 type  2   force =    -0.00334940   -0.00031027    0.00347900
     atom    8 type  2   force =     0.00334940   -0.00031027   -0.00347900
     atom    9 type  2   force =    -0.00388051   -0.00239392   -0.00011903
     atom   10 type  2   force =     0.00388051   -0.00239392    0.00011903
     atom   11 type  2   force =     0.00388051    0.00239392    0.00011903
     atom   12 type  2   force =    -0.00388051    0.00239392   -0.00011903
     atom   13 type  2   force =    -0.00119937   -0.00132755   -0.00010153
     atom   14 type  2   force =     0.00119937   -0.00132755    0.00010153
     atom   15 type  2   force =     0.00119937    0.00132755    0.00010153
     atom   16 type  2   force =    -0.00119937    0.00132755   -0.00010153

     Total force =     0.014087     Total SCF correction =     0.000000


     Computing stress (Cartesian axis) and pressure

          total   stress  (Ry/bohr**3)                   (kbar)     P=        1.76
   0.00004349   0.00000000  -0.00002368            6.40        0.00       -3.48
   0.00000000   0.00000083   0.00000000            0.00        0.12        0.00
  -0.00002368   0.00000000  -0.00000839           -3.48        0.00       -1.23

     Energy error            =      7.1E-04 Ry
     Gradient error          =      3.9E-03 Ry/Bohr
     Cell gradient error     =      6.4E+00 kbar

     number of scf cycles    =  10
     number of bfgs steps    =   9

[...]

     total energy              =     -39.62246894 Ry
     estimated scf accuracy    <       0.00046456 Ry

     iteration #  3     ecut=   150.00 Ry     beta= 0.70
     Davidson diagonalization with overlap
     ethr =  5.07E-07,  avg # of iterations =  2.0

     total cpu time spent up to now is      688.6 secs

     total energy              =     -39.62239796 Ry
     estimated scf accuracy    <       0.00014445 Ry

     iteration #  4     ecut=   150.00 Ry     beta= 0.70
     Davidson diagonalization with overlap
     ethr =  5.07E-07,  avg # of iterations =  2.0

     total cpu time spent up to now is      692.9 secs

     total energy              =     -39.62243542 Ry
     estimated scf accuracy    <       0.00000362 Ry

     iteration #  5     ecut=   150.00 Ry     beta= 0.70
     Davidson diagonalization with overlap
     ethr =  1.51E-08,  avg # of iterations =  2.0

     total cpu time spent up to now is      696.7 secs

     total energy              =     -39.62243578 Ry
     estimated scf accuracy    <       0.00000017 Ry

     iteration #  6     ecut=   150.00 Ry     beta= 0.70
     Davidson diagonalization with overlap
     ethr =  6.94E-10,  avg # of iterations =  3.0

     total cpu time spent up to now is      701.4 secs

     total energy              =     -39.62243584 Ry
     estimated scf accuracy    <       0.00000007 Ry

     iteration #  7     ecut=   150.00 Ry     beta= 0.70
     Davidson diagonalization with overlap
     ethr =  3.04E-10,  avg # of iterations =  2.0

     total cpu time spent up to now is      705.2 secs

     total energy              =     -39.62243585 Ry
     estimated scf accuracy    <          2.3E-09 Ry

     iteration #  8     ecut=   150.00 Ry     beta= 0.70
     Davidson diagonalization with overlap
     ethr =  9.44E-12,  avg # of iterations =  2.8

     total cpu time spent up to now is      709.7 secs

     total energy              =     -39.62243585 Ry
     estimated scf accuracy    <          9.2E-10 Ry

     iteration #  9     ecut=   150.00 Ry     beta= 0.70
     Davidson diagonalization with overlap
     ethr =  3.83E-12,  avg # of iterations =  1.0

     total cpu time spent up to now is      713.0 secs

     total energy              =     -39.62243585 Ry
     estimated scf accuracy    <          2.6E-10 Ry

     iteration # 10     ecut=   150.00 Ry     beta= 0.70
     Davidson diagonalization with overlap
     ethr =  1.07E-12,  avg # of iterations =  2.0

     total cpu time spent up to now is      717.3 secs

     End of self-consistent calculation

     Number of k-points >= 100: set verbosity='high' to print the bands.

     the Fermi energy is    -0.2851 ev

!    total energy              =     -39.62243585 Ry
     estimated scf accuracy    <          1.7E-11 Ry
     smearing contrib. (-TS)   =       0.00000000 Ry
     internal energy E=F+TS    =     -39.62243585 Ry

     The total energy is F=E-TS. E is the sum of the following terms:
     one-electron contribution =     -28.30213567 Ry
     hartree contribution      =      18.51087636 Ry
     xc contribution           =     -20.17783849 Ry
     ewald contribution        =      -9.65333805 Ry

     convergence has been achieved in  10 iterations

     Forces acting on atoms (cartesian axes, Ry/au):

     atom    1 type  1   force =    -0.00003513   -0.00000653   -0.00025883
     atom    2 type  1   force =     0.00003513   -0.00000653    0.00025883
     atom    3 type  1   force =     0.00003513    0.00000653    0.00025883
     atom    4 type  1   force =    -0.00003513    0.00000653   -0.00025883
     atom    5 type  2   force =     0.00000387   -0.00006780    0.00027709
     atom    6 type  2   force =    -0.00000387   -0.00006780   -0.00027709
     atom    7 type  2   force =    -0.00000387    0.00006780   -0.00027709
     atom    8 type  2   force =     0.00000387    0.00006780    0.00027709
     atom    9 type  2   force =     0.00013210    0.00014794    0.00000838
     atom   10 type  2   force =    -0.00013210    0.00014794   -0.00000838
     atom   11 type  2   force =    -0.00013210   -0.00014794   -0.00000838
     atom   12 type  2   force =     0.00013210   -0.00014794    0.00000838
     atom   13 type  2   force =    -0.00047474    0.00033764    0.00004337
     atom   14 type  2   force =     0.00047474    0.00033764   -0.00004337
     atom   15 type  2   force =     0.00047474   -0.00033764   -0.00004337
     atom   16 type  2   force =    -0.00047474   -0.00033764    0.00004337

     Total force =     0.001456     Total SCF correction =     0.000003


     Computing stress (Cartesian axis) and pressure

          total   stress  (Ry/bohr**3)                   (kbar)     P=        0.22
   0.00000167   0.00000000  -0.00000016            0.25        0.00       -0.02
   0.00000000   0.00000037   0.00000000            0.00        0.05        0.00
  -0.00000016   0.00000000   0.00000253           -0.02        0.00        0.37

     Energy error            =      1.6E-05 Ry
     Gradient error          =      4.7E-04 Ry/Bohr
     Cell gradient error     =      3.7E-01 kbar

     bfgs converged in  15 scf cycles and  14 bfgs steps
     (criteria: energy <  1.0E-04 Ry, force <  1.0E-03 Ry/Bohr, cell <  5.0E-01 kbar)

     End of BFGS Geometry Optimization

     Final enthalpy           =     -39.6224358469 Ry

     File ./BH3.bfgs deleted, as requested
Begin final coordinates
     new unit-cell volume =   1361.02287 a.u.^3 (   201.68278 Ang^3 )
     density =      0.45567 g/cm^3

CELL_PARAMETERS (alat=  8.10805891)
   1.122558674   0.000000000  -0.012882622
   0.000000000   1.639726719   0.000000000
  -0.740681917   0.000000000   1.395684610

ATOMIC_POSITIONS (crystal)
B             0.1331858258        0.5392420734        0.6352876182
B             0.8668141742        0.0392420734        0.8647123818
B             0.8668141742        0.4607579266        0.3647123818
B             0.1331858258        0.9607579266        0.1352876182
H             0.3521466763        0.6358898520        0.6613055295
H             0.6478533237        0.1358898520        0.8386944705
H             0.6478533237        0.3641101480        0.3386944705
H             0.3521466763        0.8641101480        0.1613055295
H             0.0917796562        0.4952420959        0.7894940590
H             0.9082203438        0.9952420959        0.7105059410
H             0.9082203438        0.5047579041        0.2105059410
H             0.0917796562        0.0047579041        0.2894940590
H             0.8710284152        0.6154044348        0.4761344540
H             0.1289715848        0.1154044348        0.0238655460
H             0.1289715848        0.3845955652        0.5238655460
H             0.8710284152        0.8845955652        0.9761344540
End final coordinates



     Writing config-only to output data dir ./BH3.save/

     Final scf calculation at the relaxed structure.
     The G-vectors are recalculated for the final unit cell
     Results may differ from those at the preceding step.
 
     Parallelization info
     --------------------
     sticks:   dense  smooth     PW     G-vecs:    dense   smooth      PW
     Min         206     206     56                12064    12064    1713
     Max         207     207     57                12069    12069    1717
     Sum        5773    5773   1575               337833   337833   48021
 
     Using Slab Decomposition
 


     bravais-lattice index     =            0
     lattice parameter (alat)  =       8.1081  a.u.
     unit-cell volume          =    1361.0229 (a.u.)^3
     number of atoms/cell      =           16
     number of atomic types    =            2
     number of electrons       =        24.00
     number of Kohn-Sham states=           16
     kinetic-energy cutoff     =     150.0000  Ry
     charge density cutoff     =     600.0000  Ry
     scf convergence threshold =      1.0E-10
     mixing beta               =       0.7000
     number of iterations used =            8  plain     mixing
     press convergence thresh. =      5.0E-01
     Exchange-correlation= PBE
                           (   1   4   3   4   0   0   0)

     celldm(1)=   8.108059  celldm(2)=   0.000000  celldm(3)=   0.000000
     celldm(4)=   0.000000  celldm(5)=   0.000000  celldm(6)=   0.000000

     crystal axes: (cart. coord. in units of alat)
               a(1) = (   1.122559   0.000000  -0.012883 )  
               a(2) = (   0.000000   1.639727   0.000000 )  
               a(3) = (  -0.740682   0.000000   1.395685 )  

     reciprocal axes: (cart. coord. in units 2 pi/alat)
               b(1) = (  0.896281  0.000000  0.475651 )  
               b(2) = (  0.000000  0.609858  0.000000 )  
               b(3) = (  0.008273  0.000000  0.720885 )  


     PseudoPot. # 1 for B  read from file:
     /scratch/antwerpen/209/vsc20922/pseudos/b_pbe_v1.4.uspp.F.UPF
     MD5 check sum: cc6de2960df11db49a60e589f9ebb39b
     Pseudo is Ultrasoft + core correction, Zval =  3.0
     Generated by new atomic code, or converted to UPF format
     Using radial grid of  781 points,  4 beta functions with: 
                l(1) =   0
                l(2) =   0
                l(3) =   1
                l(4) =   1
     Q(r) pseudized with  8 coefficients,  rinner =    1.100   1.100   1.100


     PseudoPot. # 2 for H  read from file:
     /scratch/antwerpen/209/vsc20922/pseudos/H.pbe-rrkjus_psl.1.0.0.UPF
     MD5 check sum: f52b6d4d1c606e5624b1dc7b2218f220
     Pseudo is Ultrasoft, Zval =  1.0
     Generated using "atomic" code by A. Dal Corso  v.5.1
     Using radial grid of  929 points,  2 beta functions with: 
                l(1) =   0
                l(2) =   0
     Q(r) pseudized with 0 coefficients 


     atomic species   valence    mass     pseudopotential
        B              3.00    10.81350     B ( 1.00)
        H              1.00     1.00750     H ( 1.00)

      4 Sym. Ops., with inversion, found ( 2 have fractional translation)



   Cartesian axes

     site n.     atom                  positions (alat units)
         1           B   tau(   1) = (  -0.3210371   0.8842096   0.8849454  )
         2           B   tau(   2) = (   0.3325729   0.0643463   1.1956989  )
         3           B   tau(   3) = (   0.7029139   0.7555171   0.4978566  )
         4           B   tau(   4) = (   0.0493038   1.5753804   0.1871031  )
         5           H   tau(   5) = (  -0.0945117   1.0426856   0.9184374  )
         6           H   tau(   6) = (   0.1060475   0.2228222   1.1622069  )
         7           H   tau(   7) = (   0.4763885   0.5970411   0.4643646  )
         8           H   tau(   8) = (   0.2758292   1.4169045   0.2205951  )
         9           H   tau(   9) = (  -0.4817359   0.8120617   1.1007023  )
        10           H   tau(  10) = (   0.4932717   1.6319251   0.9799419  )
        11           H   tau(  11) = (   0.8636127   0.8276650   0.2820996  )
        12           H   tau(  12) = (  -0.1113950   0.0078017   0.4028600  )
        13           H   tau(  13) = (   0.6251163   1.0090951   0.6533124  )
        14           H   tau(  14) = (   0.1271014   0.1892317   0.0316473  )
        15           H   tau(  15) = (  -0.2432396   0.6306316   0.7294896  )
        16           H   tau(  16) = (   0.2547754   1.4504950   1.3511547  )

     number of k points=   100  Marzari-Vanderbilt smearing, width (Ry)=  0.0050

     Number of k-points >= 100: set verbosity='high' to print them.

     Dense  grid:   337833 G-vectors     FFT dimensions: (  72, 108, 100)

     Estimated max dynamical RAM per process >      62.63 MB

     Estimated total dynamical RAM >       1.71 GB

     Initial potential from superposition of free atoms

     starting charge      23.9988, renormalised to      24.0000
     Starting wfcs are   28 randomized atomic wfcs

     total cpu time spent up to now is      723.9 secs

     Self-consistent Calculation

     iteration #  1     ecut=   150.00 Ry     beta= 0.70
     Davidson diagonalization with overlap
     c_bands:  1 eigenvalues not converged
     c_bands:  2 eigenvalues not converged
     c_bands:  1 eigenvalues not converged
     c_bands:  1 eigenvalues not converged
     c_bands:  2 eigenvalues not converged
     c_bands:  1 eigenvalues not converged
     ethr =  1.00E-06,  avg # of iterations = 16.4

     total cpu time spent up to now is      742.8 secs

     total energy              =     -39.40940319 Ry
     estimated scf accuracy    <       1.25289283 Ry

     iteration #  2     ecut=   150.00 Ry     beta= 0.70
     Davidson diagonalization with overlap
     ethr =  5.22E-03,  avg # of iterations =  2.0

     total cpu time spent up to now is      748.7 secs

     total energy              =     -39.60363951 Ry
     estimated scf accuracy    <       0.11053470 Ry

     iteration #  3     ecut=   150.00 Ry     beta= 0.70
     Davidson diagonalization with overlap
     ethr =  4.61E-04,  avg # of iterations =  2.0

     total cpu time spent up to now is      754.6 secs

     total energy              =     -39.62190599 Ry
     estimated scf accuracy    <       0.00389577 Ry

     iteration #  4     ecut=   150.00 Ry     beta= 0.70
     Davidson diagonalization with overlap
     ethr =  1.62E-05,  avg # of iterations =  4.3

     total cpu time spent up to now is      761.1 secs

     total energy              =     -39.62243982 Ry
     estimated scf accuracy    <       0.00006621 Ry

     iteration #  5     ecut=   150.00 Ry     beta= 0.70
     Davidson diagonalization with overlap
     ethr =  2.76E-07,  avg # of iterations =  4.4

     total cpu time spent up to now is      767.7 secs

     total energy              =     -39.62245648 Ry
     estimated scf accuracy    <       0.00000383 Ry

     iteration #  6     ecut=   150.00 Ry     beta= 0.70
     Davidson diagonalization with overlap
     ethr =  1.59E-08,  avg # of iterations =  2.0

     total cpu time spent up to now is      773.5 secs

     total energy              =     -39.62245706 Ry
     estimated scf accuracy    <       0.00000028 Ry

     iteration #  7     ecut=   150.00 Ry     beta= 0.70
     Davidson diagonalization with overlap
     ethr =  1.15E-09,  avg # of iterations =  1.8

     total cpu time spent up to now is      778.4 secs

     total energy              =     -39.62245708 Ry
     estimated scf accuracy    <          8.6E-09 Ry

     iteration #  8     ecut=   150.00 Ry     beta= 0.70
     Davidson diagonalization with overlap
     ethr =  3.59E-11,  avg # of iterations =  2.9

     total cpu time spent up to now is      784.9 secs

     total energy              =     -39.62245709 Ry
     estimated scf accuracy    <          3.9E-09 Ry

     iteration #  9     ecut=   150.00 Ry     beta= 0.70
     Davidson diagonalization with overlap
     ethr =  1.63E-11,  avg # of iterations =  2.0

     total cpu time spent up to now is      790.9 secs

     total energy              =     -39.62245709 Ry
     estimated scf accuracy    <          2.4E-10 Ry

     iteration # 10     ecut=   150.00 Ry     beta= 0.70
     Davidson diagonalization with overlap
     ethr =  1.01E-12,  avg # of iterations =  2.0

     total cpu time spent up to now is      796.0 secs

     End of self-consistent calculation

     Number of k-points >= 100: set verbosity='high' to print the bands.

     the Fermi energy is    -0.2860 ev

!    total energy              =     -39.62245709 Ry
     estimated scf accuracy    <          6.3E-12 Ry
     smearing contrib. (-TS)   =       0.00000000 Ry
     internal energy E=F+TS    =     -39.62245709 Ry

     The total energy is F=E-TS. E is the sum of the following terms:
     one-electron contribution =     -28.30216300 Ry
     hartree contribution      =      18.51087572 Ry
     xc contribution           =     -20.17783175 Ry
     ewald contribution        =      -9.65333805 Ry

     convergence has been achieved in  10 iterations

     Forces acting on atoms (cartesian axes, Ry/au):

     atom    1 type  1   force =    -0.00003480   -0.00000993   -0.00025788
     atom    2 type  1   force =     0.00003480   -0.00000993    0.00025788
     atom    3 type  1   force =     0.00003480    0.00000993    0.00025788
     atom    4 type  1   force =    -0.00003480    0.00000993   -0.00025788
     atom    5 type  2   force =     0.00000285   -0.00006820    0.00027700
     atom    6 type  2   force =    -0.00000285   -0.00006820   -0.00027700
     atom    7 type  2   force =    -0.00000285    0.00006820   -0.00027700
     atom    8 type  2   force =     0.00000285    0.00006820    0.00027700
     atom    9 type  2   force =     0.00013237    0.00014829    0.00000802
     atom   10 type  2   force =    -0.00013237    0.00014829   -0.00000802
     atom   11 type  2   force =    -0.00013237   -0.00014829   -0.00000802
     atom   12 type  2   force =     0.00013237   -0.00014829    0.00000802
     atom   13 type  2   force =    -0.00047472    0.00033746    0.00004295
     atom   14 type  2   force =     0.00047472    0.00033746   -0.00004295
     atom   15 type  2   force =     0.00047472   -0.00033746   -0.00004295
     atom   16 type  2   force =    -0.00047472   -0.00033746    0.00004295

     Total force =     0.001456     Total SCF correction =     0.000002


     Computing stress (Cartesian axis) and pressure

          total   stress  (Ry/bohr**3)                   (kbar)     P=        0.24
   0.00000180   0.00000000  -0.00000019            0.26        0.00       -0.03
   0.00000000   0.00000049   0.00000000            0.00        0.07        0.00
  -0.00000019   0.00000000   0.00000259           -0.03        0.00        0.38


     Writing all to output data dir ./BH3.save/
 
     init_run     :      6.88s CPU      7.11s WALL (       2 calls)
     electrons    :    701.93s CPU    738.35s WALL (      16 calls)
     update_pot   :      9.81s CPU      9.89s WALL (      14 calls)
     forces       :     13.47s CPU     13.63s WALL (      16 calls)
     stress       :     26.08s CPU     26.26s WALL (      16 calls)

     Called by init_run:
     wfcinit      :      5.23s CPU      5.37s WALL (       2 calls)
     potinit      :      0.51s CPU      0.53s WALL (       2 calls)
     hinit0       :      0.79s CPU      0.80s WALL (       2 calls)

     Called by electrons:
     c_bands      :    601.81s CPU    634.64s WALL (     154 calls)
     sum_band     :     95.67s CPU     97.46s WALL (     154 calls)
     v_of_rho     :      2.53s CPU      2.56s WALL (     170 calls)
     newd         :      1.51s CPU      1.57s WALL (     170 calls)
     mix_rho      :      0.54s CPU      0.55s WALL (     154 calls)

     Called by c_bands:
     init_us_2    :     12.86s CPU     13.55s WALL (   34200 calls)
     init_us_2:cp :     12.72s CPU     13.44s WALL (   34200 calls)
     cegterg      :    569.91s CPU    580.70s WALL (   15400 calls)

     Called by *egterg:
     cdiaghg      :     17.33s CPU     17.62s WALL (   54399 calls)
     h_psi        :    481.99s CPU    491.51s WALL (   55999 calls)
     s_psi        :     15.20s CPU     15.44s WALL (   55999 calls)
     g_psi        :      4.40s CPU      4.47s WALL (   40399 calls)

     Called by h_psi:
     h_psi:calbec :     25.20s CPU     25.69s WALL (   55999 calls)
     vloc_psi     :    435.97s CPU    444.68s WALL (   55999 calls)
     add_vuspsi   :     17.07s CPU     17.38s WALL (   55999 calls)

     General routines
     calbec       :     34.15s CPU     34.81s WALL (   79399 calls)
     fft          :      1.48s CPU      1.50s WALL (    2284 calls)
     ffts         :      0.09s CPU      0.10s WALL (     154 calls)
     fftw         :    445.01s CPU    453.71s WALL ( 1673260 calls)
 
     Parallel routines
 
     PWSCF        :  12m39.78s CPU  13m29.40s WALL

 
   This run was terminated on:  13:44:12   8Dec2023            

=------------------------------------------------------------------------------=
   JOB DONE.
=------------------------------------------------------------------------------=
