
     Program PWSCF v.6.7MaX starts on 28Nov2023 at  8:14:52 

     This program is part of the open-source Quantum ESPRESSO suite
     for quantum simulation of materials; please cite
         "P. Giannozzi et al., J. Phys.:Condens. Matter 21 395502 (2009);
         "P. Giannozzi et al., J. Phys.:Condens. Matter 29 465901 (2017);
          URL http://www.quantum-espresso.org", 
     in publications or presentations arising from this work. More details at
     http://www.quantum-espresso.org/quote

     Parallel version (MPI), running on     8 processors

     MPI processes distributed on     1 nodes
     R & G space division:  proc/nbgrp/npool/nimage =       8
     Reading input from Cs3AlH6_opt.in

     Current dimensions of program PWSCF are:
     Max number of different atomic species (ntypx) = 10
     Max number of k-points (npk) =  40000
     Max angular momentum in pseudopotentials (lmaxx) =  3
     file Al.pbe-n-kjpaw_psl.1.0.0.UPF: wavefunction(s)  3S 3P renormalized

     IMPORTANT: XC functional enforced from input :
     Exchange-correlation= PBE
                           (   1   4   3   4   0   0   0)
     Any further DFT definition will be discarded
     Please, verify this is what you really want


     Subspace diagonalization in iterative solution of the eigenvalue problem:
     one sub-group per band group will be used
     scalapack distributed-memory algorithm (size of sub-group:  2*  2 procs)

     Found symmetry operation: I + (  0.5000 -0.5000  0.0000)
     This is a supercell, fractional translations are disabled
     Message from routine setup:
     using ibrav=0 with symmetry is DISCOURAGED, use correct ibrav instead

     Parallelization info
     --------------------
     sticks:   dense  smooth     PW     G-vecs:    dense   smooth      PW
     Min        1210     965    256                89473    63995    8726
     Max        1212     966    257                89476    64000    8729
     Sum        9689    7721   2053               715799   511971   69815



     bravais-lattice index     =            0
     lattice parameter (alat)  =      17.2402  a.u.
     unit-cell volume          =    5294.8493 (a.u.)^3
     number of atoms/cell      =           40
     number of atomic types    =            3
     number of electrons       =       144.00
     number of Kohn-Sham states=           86
     kinetic-energy cutoff     =      80.0000  Ry
     charge density cutoff     =     400.0000  Ry
     scf convergence threshold =      1.0E-08
     mixing beta               =       0.7000
     number of iterations used =            8  plain     mixing
     energy convergence thresh.=      1.0E-04
     force convergence thresh. =      1.0E-03
     press convergence thresh. =      5.0E-01
     Exchange-correlation= PBE
                           (   1   4   3   4   0   0   0)
     nstep                     =           50


     celldm(1)=  17.240249  celldm(2)=   0.000000  celldm(3)=   0.000000
     celldm(4)=   0.000000  celldm(5)=   0.000000  celldm(6)=   0.000000

     crystal axes: (cart. coord. in units of alat)
               a(1) = (   1.010976   0.000000   0.000000 )  
               a(2) = (   0.000000   1.010976   0.000000 )  
               a(3) = (   0.000000   0.000000   1.010976 )  

     reciprocal axes: (cart. coord. in units 2 pi/alat)
               b(1) = (  0.989143  0.000000  0.000000 )  
               b(2) = (  0.000000  0.989143  0.000000 )  
               b(3) = (  0.000000  0.000000  0.989143 )  


     PseudoPot. # 1 for H  read from file:
     /home/thibautdhomme/PseudoLib/H.pbe-rrkjus_psl.1.0.0.UPF
     MD5 check sum: f52b6d4d1c606e5624b1dc7b2218f220
     Pseudo is Ultrasoft, Zval =  1.0
     Generated using "atomic" code by A. Dal Corso  v.5.1
     Using radial grid of  929 points,  2 beta functions with: 
                l(1) =   0
                l(2) =   0
     Q(r) pseudized with 0 coefficients 


     PseudoPot. # 2 for Al read from file:
     /home/thibautdhomme/PseudoLib/Al.pbe-n-kjpaw_psl.1.0.0.UPF
     MD5 check sum: cfc449ca30b5f3223ec38ddd88ac046d
     Pseudo is Projector augmented-wave + core cor, Zval =  3.0
     Generated using "atomic" code by A. Dal Corso  v.5.1
     Shape of augmentation charge: PSQ
     Using radial grid of 1135 points,  6 beta functions with: 
                l(1) =   0
                l(2) =   0
                l(3) =   1
                l(4) =   1
                l(5) =   2
                l(6) =   2
     Q(r) pseudized with 0 coefficients 


     PseudoPot. # 3 for Cs read from file:
     /home/thibautdhomme/PseudoLib/Cs_pbe_v1.uspp.F.UPF
     MD5 check sum: 3476d69cb178dfad3ffaa59df4e07ca4
     Pseudo is Ultrasoft + core correction, Zval =  9.0
     Generated by new atomic code, or converted to UPF format
     Using radial grid of  905 points,  6 beta functions with: 
                l(1) =   0
                l(2) =   0
                l(3) =   1
                l(4) =   1
                l(5) =   2
                l(6) =   2
     Q(r) pseudized with  6 coefficients,  rinner =    1.500   1.500   1.500
                                                       1.500   1.500

     atomic species   valence    mass     pseudopotential
        H              1.00     1.00750     H ( 1.00)
        Al             3.00    26.98100     Al( 1.00)
        Cs             9.00   132.90500     Cs( 1.00)

     48 Sym. Ops., with inversion, found


                                    s                        frac. trans.

      isym =  1     identity                                     

 cryst.   s( 1) = (     1          0          0      )
                  (     0          1          0      )
                  (     0          0          1      )

 cart.    s( 1) = (  1.0000000  0.0000000  0.0000000 )
                  (  0.0000000  1.0000000  0.0000000 )
                  (  0.0000000  0.0000000  1.0000000 )


      isym =  2     180 deg rotation - cart. axis [0,0,1]        

 cryst.   s( 2) = (    -1          0          0      )
                  (     0         -1          0      )
                  (     0          0          1      )

 cart.    s( 2) = ( -1.0000000  0.0000000  0.0000000 )
                  (  0.0000000 -1.0000000  0.0000000 )
                  (  0.0000000  0.0000000  1.0000000 )


      isym =  3     180 deg rotation - cart. axis [0,1,0]        

 cryst.   s( 3) = (    -1          0          0      )
                  (     0          1          0      )
                  (     0          0         -1      )

 cart.    s( 3) = ( -1.0000000  0.0000000  0.0000000 )
                  (  0.0000000  1.0000000  0.0000000 )
                  (  0.0000000  0.0000000 -1.0000000 )


      isym =  4     180 deg rotation - cart. axis [1,0,0]        

 cryst.   s( 4) = (     1          0          0      )
                  (     0         -1          0      )
                  (     0          0         -1      )

 cart.    s( 4) = (  1.0000000  0.0000000  0.0000000 )
                  (  0.0000000 -1.0000000  0.0000000 )
                  (  0.0000000  0.0000000 -1.0000000 )


      isym =  5     180 deg rotation - cart. axis [1,1,0]        

 cryst.   s( 5) = (     0          1          0      )
                  (     1          0          0      )
                  (     0          0         -1      )

 cart.    s( 5) = (  0.0000000  1.0000000  0.0000000 )
                  (  1.0000000  0.0000000  0.0000000 )
                  (  0.0000000  0.0000000 -1.0000000 )


      isym =  6     180 deg rotation - cart. axis [1,-1,0]       

 cryst.   s( 6) = (     0         -1          0      )
                  (    -1          0          0      )
                  (     0          0         -1      )

 cart.    s( 6) = (  0.0000000 -1.0000000  0.0000000 )
                  ( -1.0000000  0.0000000  0.0000000 )
                  (  0.0000000  0.0000000 -1.0000000 )


      isym =  7      90 deg rotation - cart. axis [0,0,-1]       

 cryst.   s( 7) = (     0         -1          0      )
                  (     1          0          0      )
                  (     0          0          1      )

 cart.    s( 7) = (  0.0000000  1.0000000  0.0000000 )
                  ( -1.0000000  0.0000000  0.0000000 )
                  (  0.0000000  0.0000000  1.0000000 )


      isym =  8      90 deg rotation - cart. axis [0,0,1]        

 cryst.   s( 8) = (     0          1          0      )
                  (    -1          0          0      )
                  (     0          0          1      )

 cart.    s( 8) = (  0.0000000 -1.0000000  0.0000000 )
                  (  1.0000000  0.0000000  0.0000000 )
                  (  0.0000000  0.0000000  1.0000000 )


      isym =  9     180 deg rotation - cart. axis [1,0,1]        

 cryst.   s( 9) = (     0          0          1      )
                  (     0         -1          0      )
                  (     1          0          0      )

 cart.    s( 9) = (  0.0000000  0.0000000  1.0000000 )
                  (  0.0000000 -1.0000000  0.0000000 )
                  (  1.0000000  0.0000000  0.0000000 )


      isym = 10     180 deg rotation - cart. axis [-1,0,1]       

 cryst.   s(10) = (     0          0         -1      )
                  (     0         -1          0      )
                  (    -1          0          0      )

 cart.    s(10) = (  0.0000000  0.0000000 -1.0000000 )
                  (  0.0000000 -1.0000000  0.0000000 )
                  ( -1.0000000  0.0000000  0.0000000 )


      isym = 11      90 deg rotation - cart. axis [0,1,0]        

 cryst.   s(11) = (     0          0         -1      )
                  (     0          1          0      )
                  (     1          0          0      )

 cart.    s(11) = (  0.0000000  0.0000000  1.0000000 )
                  (  0.0000000  1.0000000  0.0000000 )
                  ( -1.0000000  0.0000000  0.0000000 )


      isym = 12      90 deg rotation - cart. axis [0,-1,0]       

 cryst.   s(12) = (     0          0          1      )
                  (     0          1          0      )
                  (    -1          0          0      )

 cart.    s(12) = (  0.0000000  0.0000000 -1.0000000 )
                  (  0.0000000  1.0000000  0.0000000 )
                  (  1.0000000  0.0000000  0.0000000 )


      isym = 13     180 deg rotation - cart. axis [0,1,1]        

 cryst.   s(13) = (    -1          0          0      )
                  (     0          0          1      )
                  (     0          1          0      )

 cart.    s(13) = ( -1.0000000  0.0000000  0.0000000 )
                  (  0.0000000  0.0000000  1.0000000 )
                  (  0.0000000  1.0000000  0.0000000 )


      isym = 14     180 deg rotation - cart. axis [0,1,-1]       

 cryst.   s(14) = (    -1          0          0      )
                  (     0          0         -1      )
                  (     0         -1          0      )

 cart.    s(14) = ( -1.0000000  0.0000000  0.0000000 )
                  (  0.0000000  0.0000000 -1.0000000 )
                  (  0.0000000 -1.0000000  0.0000000 )


      isym = 15      90 deg rotation - cart. axis [-1,0,0]       

 cryst.   s(15) = (     1          0          0      )
                  (     0          0         -1      )
                  (     0          1          0      )

 cart.    s(15) = (  1.0000000  0.0000000  0.0000000 )
                  (  0.0000000  0.0000000  1.0000000 )
                  (  0.0000000 -1.0000000  0.0000000 )


      isym = 16      90 deg rotation - cart. axis [1,0,0]        

 cryst.   s(16) = (     1          0          0      )
                  (     0          0          1      )
                  (     0         -1          0      )

 cart.    s(16) = (  1.0000000  0.0000000  0.0000000 )
                  (  0.0000000  0.0000000 -1.0000000 )
                  (  0.0000000  1.0000000  0.0000000 )


      isym = 17     120 deg rotation - cart. axis [-1,-1,-1]     

 cryst.   s(17) = (     0          0          1      )
                  (     1          0          0      )
                  (     0          1          0      )

 cart.    s(17) = (  0.0000000  1.0000000  0.0000000 )
                  (  0.0000000  0.0000000  1.0000000 )
                  (  1.0000000  0.0000000  0.0000000 )


      isym = 18     120 deg rotation - cart. axis [-1,1,1]       

 cryst.   s(18) = (     0          0         -1      )
                  (    -1          0          0      )
                  (     0          1          0      )

 cart.    s(18) = (  0.0000000 -1.0000000  0.0000000 )
                  (  0.0000000  0.0000000  1.0000000 )
                  ( -1.0000000  0.0000000  0.0000000 )


      isym = 19     120 deg rotation - cart. axis [1,1,-1]       

 cryst.   s(19) = (     0          0         -1      )
                  (     1          0          0      )
                  (     0         -1          0      )

 cart.    s(19) = (  0.0000000  1.0000000  0.0000000 )
                  (  0.0000000  0.0000000 -1.0000000 )
                  ( -1.0000000  0.0000000  0.0000000 )


      isym = 20     120 deg rotation - cart. axis [1,-1,1]       

 cryst.   s(20) = (     0          0          1      )
                  (    -1          0          0      )
                  (     0         -1          0      )

 cart.    s(20) = (  0.0000000 -1.0000000  0.0000000 )
                  (  0.0000000  0.0000000 -1.0000000 )
                  (  1.0000000  0.0000000  0.0000000 )


      isym = 21     120 deg rotation - cart. axis [1,1,1]        

 cryst.   s(21) = (     0          1          0      )
                  (     0          0          1      )
                  (     1          0          0      )

 cart.    s(21) = (  0.0000000  0.0000000  1.0000000 )
                  (  1.0000000  0.0000000  0.0000000 )
                  (  0.0000000  1.0000000  0.0000000 )


      isym = 22     120 deg rotation - cart. axis [-1,1,-1]      

 cryst.   s(22) = (     0         -1          0      )
                  (     0          0         -1      )
                  (     1          0          0      )

 cart.    s(22) = (  0.0000000  0.0000000  1.0000000 )
                  ( -1.0000000  0.0000000  0.0000000 )
                  (  0.0000000 -1.0000000  0.0000000 )


      isym = 23     120 deg rotation - cart. axis [1,-1,-1]      

 cryst.   s(23) = (     0         -1          0      )
                  (     0          0          1      )
                  (    -1          0          0      )

 cart.    s(23) = (  0.0000000  0.0000000 -1.0000000 )
                  ( -1.0000000  0.0000000  0.0000000 )
                  (  0.0000000  1.0000000  0.0000000 )


      isym = 24     120 deg rotation - cart. axis [-1,-1,1]      

 cryst.   s(24) = (     0          1          0      )
                  (     0          0         -1      )
                  (    -1          0          0      )

 cart.    s(24) = (  0.0000000  0.0000000 -1.0000000 )
                  (  1.0000000  0.0000000  0.0000000 )
                  (  0.0000000 -1.0000000  0.0000000 )


      isym = 25     inversion                                    

 cryst.   s(25) = (    -1          0          0      )
                  (     0         -1          0      )
                  (     0          0         -1      )

 cart.    s(25) = ( -1.0000000  0.0000000  0.0000000 )
                  (  0.0000000 -1.0000000  0.0000000 )
                  (  0.0000000  0.0000000 -1.0000000 )


      isym = 26     inv. 180 deg rotation - cart. axis [0,0,1]   

 cryst.   s(26) = (     1          0          0      )
                  (     0          1          0      )
                  (     0          0         -1      )

 cart.    s(26) = (  1.0000000  0.0000000  0.0000000 )
                  (  0.0000000  1.0000000  0.0000000 )
                  (  0.0000000  0.0000000 -1.0000000 )


      isym = 27     inv. 180 deg rotation - cart. axis [0,1,0]   

 cryst.   s(27) = (     1          0          0      )
                  (     0         -1          0      )
                  (     0          0          1      )

 cart.    s(27) = (  1.0000000  0.0000000  0.0000000 )
                  (  0.0000000 -1.0000000  0.0000000 )
                  (  0.0000000  0.0000000  1.0000000 )


      isym = 28     inv. 180 deg rotation - cart. axis [1,0,0]   

 cryst.   s(28) = (    -1          0          0      )
                  (     0          1          0      )
                  (     0          0          1      )

 cart.    s(28) = ( -1.0000000  0.0000000  0.0000000 )
                  (  0.0000000  1.0000000  0.0000000 )
                  (  0.0000000  0.0000000  1.0000000 )


      isym = 29     inv. 180 deg rotation - cart. axis [1,1,0]   

 cryst.   s(29) = (     0         -1          0      )
                  (    -1          0          0      )
                  (     0          0          1      )

 cart.    s(29) = (  0.0000000 -1.0000000  0.0000000 )
                  ( -1.0000000  0.0000000  0.0000000 )
                  (  0.0000000  0.0000000  1.0000000 )


      isym = 30     inv. 180 deg rotation - cart. axis [1,-1,0]  

 cryst.   s(30) = (     0          1          0      )
                  (     1          0          0      )
                  (     0          0          1      )

 cart.    s(30) = (  0.0000000  1.0000000  0.0000000 )
                  (  1.0000000  0.0000000  0.0000000 )
                  (  0.0000000  0.0000000  1.0000000 )


      isym = 31     inv.  90 deg rotation - cart. axis [0,0,-1]  

 cryst.   s(31) = (     0          1          0      )
                  (    -1          0          0      )
                  (     0          0         -1      )

 cart.    s(31) = (  0.0000000 -1.0000000  0.0000000 )
                  (  1.0000000  0.0000000  0.0000000 )
                  (  0.0000000  0.0000000 -1.0000000 )


      isym = 32     inv.  90 deg rotation - cart. axis [0,0,1]   

 cryst.   s(32) = (     0         -1          0      )
                  (     1          0          0      )
                  (     0          0         -1      )

 cart.    s(32) = (  0.0000000  1.0000000  0.0000000 )
                  ( -1.0000000  0.0000000  0.0000000 )
                  (  0.0000000  0.0000000 -1.0000000 )


      isym = 33     inv. 180 deg rotation - cart. axis [1,0,1]   

 cryst.   s(33) = (     0          0         -1      )
                  (     0          1          0      )
                  (    -1          0          0      )

 cart.    s(33) = (  0.0000000  0.0000000 -1.0000000 )
                  (  0.0000000  1.0000000  0.0000000 )
                  ( -1.0000000  0.0000000  0.0000000 )


      isym = 34     inv. 180 deg rotation - cart. axis [-1,0,1]  

 cryst.   s(34) = (     0          0          1      )
                  (     0          1          0      )
                  (     1          0          0      )

 cart.    s(34) = (  0.0000000  0.0000000  1.0000000 )
                  (  0.0000000  1.0000000  0.0000000 )
                  (  1.0000000  0.0000000  0.0000000 )


      isym = 35     inv.  90 deg rotation - cart. axis [0,1,0]   

 cryst.   s(35) = (     0          0          1      )
                  (     0         -1          0      )
                  (    -1          0          0      )

 cart.    s(35) = (  0.0000000  0.0000000 -1.0000000 )
                  (  0.0000000 -1.0000000  0.0000000 )
                  (  1.0000000  0.0000000  0.0000000 )


      isym = 36     inv.  90 deg rotation - cart. axis [0,-1,0]  

 cryst.   s(36) = (     0          0         -1      )
                  (     0         -1          0      )
                  (     1          0          0      )

 cart.    s(36) = (  0.0000000  0.0000000  1.0000000 )
                  (  0.0000000 -1.0000000  0.0000000 )
                  ( -1.0000000  0.0000000  0.0000000 )


      isym = 37     inv. 180 deg rotation - cart. axis [0,1,1]   

 cryst.   s(37) = (     1          0          0      )
                  (     0          0         -1      )
                  (     0         -1          0      )

 cart.    s(37) = (  1.0000000  0.0000000  0.0000000 )
                  (  0.0000000  0.0000000 -1.0000000 )
                  (  0.0000000 -1.0000000  0.0000000 )


      isym = 38     inv. 180 deg rotation - cart. axis [0,1,-1]  

 cryst.   s(38) = (     1          0          0      )
                  (     0          0          1      )
                  (     0          1          0      )

 cart.    s(38) = (  1.0000000  0.0000000  0.0000000 )
                  (  0.0000000  0.0000000  1.0000000 )
                  (  0.0000000  1.0000000  0.0000000 )


      isym = 39     inv.  90 deg rotation - cart. axis [-1,0,0]  

 cryst.   s(39) = (    -1          0          0      )
                  (     0          0          1      )
                  (     0         -1          0      )

 cart.    s(39) = ( -1.0000000  0.0000000  0.0000000 )
                  (  0.0000000  0.0000000 -1.0000000 )
                  (  0.0000000  1.0000000  0.0000000 )


      isym = 40     inv.  90 deg rotation - cart. axis [1,0,0]   

 cryst.   s(40) = (    -1          0          0      )
                  (     0          0         -1      )
                  (     0          1          0      )

 cart.    s(40) = ( -1.0000000  0.0000000  0.0000000 )
                  (  0.0000000  0.0000000  1.0000000 )
                  (  0.0000000 -1.0000000  0.0000000 )


      isym = 41     inv. 120 deg rotation - cart. axis [-1,-1,-1]

 cryst.   s(41) = (     0          0         -1      )
                  (    -1          0          0      )
                  (     0         -1          0      )

 cart.    s(41) = (  0.0000000 -1.0000000  0.0000000 )
                  (  0.0000000  0.0000000 -1.0000000 )
                  ( -1.0000000  0.0000000  0.0000000 )


      isym = 42     inv. 120 deg rotation - cart. axis [-1,1,1]  

 cryst.   s(42) = (     0          0          1      )
                  (     1          0          0      )
                  (     0         -1          0      )

 cart.    s(42) = (  0.0000000  1.0000000  0.0000000 )
                  (  0.0000000  0.0000000 -1.0000000 )
                  (  1.0000000  0.0000000  0.0000000 )


      isym = 43     inv. 120 deg rotation - cart. axis [1,1,-1]  

 cryst.   s(43) = (     0          0          1      )
                  (    -1          0          0      )
                  (     0          1          0      )

 cart.    s(43) = (  0.0000000 -1.0000000  0.0000000 )
                  (  0.0000000  0.0000000  1.0000000 )
                  (  1.0000000  0.0000000  0.0000000 )


      isym = 44     inv. 120 deg rotation - cart. axis [1,-1,1]  

 cryst.   s(44) = (     0          0         -1      )
                  (     1          0          0      )
                  (     0          1          0      )

 cart.    s(44) = (  0.0000000  1.0000000  0.0000000 )
                  (  0.0000000  0.0000000  1.0000000 )
                  ( -1.0000000  0.0000000  0.0000000 )


      isym = 45     inv. 120 deg rotation - cart. axis [1,1,1]   

 cryst.   s(45) = (     0         -1          0      )
                  (     0          0         -1      )
                  (    -1          0          0      )

 cart.    s(45) = (  0.0000000  0.0000000 -1.0000000 )
                  ( -1.0000000  0.0000000  0.0000000 )
                  (  0.0000000 -1.0000000  0.0000000 )


      isym = 46     inv. 120 deg rotation - cart. axis [-1,1,-1] 

 cryst.   s(46) = (     0          1          0      )
                  (     0          0          1      )
                  (    -1          0          0      )

 cart.    s(46) = (  0.0000000  0.0000000 -1.0000000 )
                  (  1.0000000  0.0000000  0.0000000 )
                  (  0.0000000  1.0000000  0.0000000 )


      isym = 47     inv. 120 deg rotation - cart. axis [1,-1,-1] 

 cryst.   s(47) = (     0          1          0      )
                  (     0          0         -1      )
                  (     1          0          0      )

 cart.    s(47) = (  0.0000000  0.0000000  1.0000000 )
                  (  1.0000000  0.0000000  0.0000000 )
                  (  0.0000000 -1.0000000  0.0000000 )


      isym = 48     inv. 120 deg rotation - cart. axis [-1,-1,1] 

 cryst.   s(48) = (     0         -1          0      )
                  (     0          0          1      )
                  (     1          0          0      )

 cart.    s(48) = (  0.0000000  0.0000000  1.0000000 )
                  ( -1.0000000  0.0000000  0.0000000 )
                  (  0.0000000  1.0000000  0.0000000 )


   Cartesian axes

     site n.     atom                  positions (alat units)
         1           Al  tau(   1) = (   0.5054882   0.0000000   0.0000000  )
         2           Al  tau(   2) = (   0.0000000   0.5054882   0.0000000  )
         3           Al  tau(   3) = (   0.0000000   0.0000000   0.5054882  )
         4           Al  tau(   4) = (   0.5054882   0.5054882   0.5054882  )
         5           Cs  tau(   5) = (   0.0000000   0.0000000   0.0000000  )
         6           Cs  tau(   6) = (   0.5054882   0.5054882   0.0000000  )
         7           Cs  tau(   7) = (   0.2527441   0.2527441   0.2527441  )
         8           Cs  tau(   8) = (   0.7582323   0.2527441   0.2527441  )
         9           Cs  tau(   9) = (   0.2527441   0.7582323   0.2527441  )
        10           Cs  tau(  10) = (   0.7582323   0.7582323   0.2527441  )
        11           Cs  tau(  11) = (   0.5054882   0.0000000   0.5054882  )
        12           Cs  tau(  12) = (   0.0000000   0.5054882   0.5054882  )
        13           Cs  tau(  13) = (   0.2527441   0.2527441   0.7582323  )
        14           Cs  tau(  14) = (   0.7582323   0.2527441   0.7582323  )
        15           Cs  tau(  15) = (   0.2527441   0.7582323   0.7582323  )
        16           Cs  tau(  16) = (   0.7582323   0.7582323   0.7582323  )
        17           H   tau(  17) = (   0.3093114   0.0000000   0.0000000  )
        18           H   tau(  18) = (   0.7016650   0.0000000   0.0000000  )
        19           H   tau(  19) = (   0.5054882   0.1961768   0.0000000  )
        20           H   tau(  20) = (   0.0000000   0.3093114   0.0000000  )
        21           H   tau(  21) = (   0.1961768   0.5054882   0.0000000  )
        22           H   tau(  22) = (   0.8147995   0.5054882   0.0000000  )
        23           H   tau(  23) = (   0.0000000   0.7016650   0.0000000  )
        24           H   tau(  24) = (   0.5054882   0.8147995   0.0000000  )
        25           H   tau(  25) = (   0.5054882   0.0000000   0.1961768  )
        26           H   tau(  26) = (   0.0000000   0.5054882   0.1961768  )
        27           H   tau(  27) = (   0.0000000   0.0000000   0.3093114  )
        28           H   tau(  28) = (   0.5054882   0.5054882   0.3093113  )
        29           H   tau(  29) = (   0.1961768   0.0000000   0.5054882  )
        30           H   tau(  30) = (   0.8147995   0.0000000   0.5054882  )
        31           H   tau(  31) = (   0.0000000   0.1961768   0.5054882  )
        32           H   tau(  32) = (   0.5054882   0.3093113   0.5054882  )
        33           H   tau(  33) = (   0.3093113   0.5054882   0.5054882  )
        34           H   tau(  34) = (   0.7016650   0.5054882   0.5054882  )
        35           H   tau(  35) = (   0.5054882   0.7016650   0.5054882  )
        36           H   tau(  36) = (   0.0000000   0.8147995   0.5054882  )
        37           H   tau(  37) = (   0.0000000   0.0000000   0.7016650  )
        38           H   tau(  38) = (   0.5054882   0.5054882   0.7016650  )
        39           H   tau(  39) = (   0.5054882   0.0000000   0.8147995  )
        40           H   tau(  40) = (   0.0000000   0.5054882   0.8147995  )

   Crystallographic axes

     site n.     atom                  positions (cryst. coord.)
         1           Al  tau(   1) = (  0.5000000  0.0000000  0.0000000  )
         2           Al  tau(   2) = (  0.0000000  0.5000000  0.0000000  )
         3           Al  tau(   3) = (  0.0000000  0.0000000  0.5000000  )
         4           Al  tau(   4) = (  0.5000000  0.5000000  0.5000000  )
         5           Cs  tau(   5) = (  0.0000000  0.0000000  0.0000000  )
         6           Cs  tau(   6) = (  0.5000000  0.5000000  0.0000000  )
         7           Cs  tau(   7) = (  0.2500000  0.2500000  0.2500000  )
         8           Cs  tau(   8) = (  0.7500000  0.2500000  0.2500000  )
         9           Cs  tau(   9) = (  0.2500000  0.7500000  0.2500000  )
        10           Cs  tau(  10) = (  0.7500000  0.7500000  0.2500000  )
        11           Cs  tau(  11) = (  0.5000000  0.0000000  0.5000000  )
        12           Cs  tau(  12) = (  0.0000000  0.5000000  0.5000000  )
        13           Cs  tau(  13) = (  0.2500000  0.2500000  0.7500000  )
        14           Cs  tau(  14) = (  0.7500000  0.2500000  0.7500000  )
        15           Cs  tau(  15) = (  0.2500000  0.7500000  0.7500000  )
        16           Cs  tau(  16) = (  0.7500000  0.7500000  0.7500000  )
        17           H   tau(  17) = (  0.3059531  0.0000000  0.0000000  )
        18           H   tau(  18) = (  0.6940469  0.0000000  0.0000000  )
        19           H   tau(  19) = (  0.5000000  0.1940469  0.0000000  )
        20           H   tau(  20) = (  0.0000000  0.3059531  0.0000000  )
        21           H   tau(  21) = (  0.1940469  0.5000000  0.0000000  )
        22           H   tau(  22) = (  0.8059531  0.5000000  0.0000000  )
        23           H   tau(  23) = (  0.0000000  0.6940469  0.0000000  )
        24           H   tau(  24) = (  0.5000000  0.8059531  0.0000000  )
        25           H   tau(  25) = (  0.5000000  0.0000000  0.1940469  )
        26           H   tau(  26) = (  0.0000000  0.5000000  0.1940469  )
        27           H   tau(  27) = (  0.0000000  0.0000000  0.3059531  )
        28           H   tau(  28) = (  0.5000000  0.5000000  0.3059531  )
        29           H   tau(  29) = (  0.1940469  0.0000000  0.5000000  )
        30           H   tau(  30) = (  0.8059531  0.0000000  0.5000000  )
        31           H   tau(  31) = (  0.0000000  0.1940469  0.5000000  )
        32           H   tau(  32) = (  0.5000000  0.3059531  0.5000000  )
        33           H   tau(  33) = (  0.3059531  0.5000000  0.5000000  )
        34           H   tau(  34) = (  0.6940469  0.5000000  0.5000000  )
        35           H   tau(  35) = (  0.5000000  0.6940469  0.5000000  )
        36           H   tau(  36) = (  0.0000000  0.8059531  0.5000000  )
        37           H   tau(  37) = (  0.0000000  0.0000000  0.6940469  )
        38           H   tau(  38) = (  0.5000000  0.5000000  0.6940469  )
        39           H   tau(  39) = (  0.5000000  0.0000000  0.8059531  )
        40           H   tau(  40) = (  0.0000000  0.5000000  0.8059531  )

     number of k points=    20  Marzari-Vanderbilt smearing, width (Ry)=  0.0050
                       cart. coord. in units 2pi/alat
        k(    1) = (   0.0000000   0.0000000   0.0000000), wk =   0.0058309
        k(    2) = (   0.0000000   0.0000000   0.1413061), wk =   0.0349854
        k(    3) = (   0.0000000   0.0000000   0.2826122), wk =   0.0349854
        k(    4) = (   0.0000000   0.0000000   0.4239184), wk =   0.0349854
        k(    5) = (   0.0000000   0.1413061   0.1413061), wk =   0.0699708
        k(    6) = (   0.0000000   0.1413061   0.2826122), wk =   0.1399417
        k(    7) = (   0.0000000   0.1413061   0.4239184), wk =   0.1399417
        k(    8) = (   0.0000000   0.2826122   0.2826122), wk =   0.0699708
        k(    9) = (   0.0000000   0.2826122   0.4239184), wk =   0.1399417
        k(   10) = (   0.0000000   0.4239184   0.4239184), wk =   0.0699708
        k(   11) = (   0.1413061   0.1413061   0.1413061), wk =   0.0466472
        k(   12) = (   0.1413061   0.1413061   0.2826122), wk =   0.1399417
        k(   13) = (   0.1413061   0.1413061   0.4239184), wk =   0.1399417
        k(   14) = (   0.1413061   0.2826122   0.2826122), wk =   0.1399417
        k(   15) = (   0.1413061   0.2826122   0.4239184), wk =   0.2798834
        k(   16) = (   0.1413061   0.4239184   0.4239184), wk =   0.1399417
        k(   17) = (   0.2826122   0.2826122   0.2826122), wk =   0.0466472
        k(   18) = (   0.2826122   0.2826122   0.4239184), wk =   0.1399417
        k(   19) = (   0.2826122   0.4239184   0.4239184), wk =   0.1399417
        k(   20) = (   0.4239184   0.4239184   0.4239184), wk =   0.0466472

                       cryst. coord.
        k(    1) = (   0.0000000   0.0000000   0.0000000), wk =   0.0058309
        k(    2) = (   0.0000000   0.0000000   0.1428571), wk =   0.0349854
        k(    3) = (   0.0000000   0.0000000   0.2857143), wk =   0.0349854
        k(    4) = (   0.0000000   0.0000000   0.4285714), wk =   0.0349854
        k(    5) = (   0.0000000   0.1428571   0.1428571), wk =   0.0699708
        k(    6) = (   0.0000000   0.1428571   0.2857143), wk =   0.1399417
        k(    7) = (   0.0000000   0.1428571   0.4285714), wk =   0.1399417
        k(    8) = (   0.0000000   0.2857143   0.2857143), wk =   0.0699708
        k(    9) = (   0.0000000   0.2857143   0.4285714), wk =   0.1399417
        k(   10) = (   0.0000000   0.4285714   0.4285714), wk =   0.0699708
        k(   11) = (   0.1428571   0.1428571   0.1428571), wk =   0.0466472
        k(   12) = (   0.1428571   0.1428571   0.2857143), wk =   0.1399417
        k(   13) = (   0.1428571   0.1428571   0.4285714), wk =   0.1399417
        k(   14) = (   0.1428571   0.2857143   0.2857143), wk =   0.1399417
        k(   15) = (   0.1428571   0.2857143   0.4285714), wk =   0.2798834
        k(   16) = (   0.1428571   0.4285714   0.4285714), wk =   0.1399417
        k(   17) = (   0.2857143   0.2857143   0.2857143), wk =   0.0466472
        k(   18) = (   0.2857143   0.2857143   0.4285714), wk =   0.1399417
        k(   19) = (   0.2857143   0.4285714   0.4285714), wk =   0.1399417
        k(   20) = (   0.4285714   0.4285714   0.4285714), wk =   0.0466472

     Dense  grid:   715799 G-vectors     FFT dimensions: ( 120, 120, 120)

     Smooth grid:   511971 G-vectors     FFT dimensions: ( 100, 100, 100)

     Dynamical RAM for                 wfc:      10.49 MB

     Dynamical RAM for     wfc (w. buffer):     220.38 MB

     Dynamical RAM for           str. fact:       4.10 MB

     Dynamical RAM for           local pot:       0.00 MB

     Dynamical RAM for          nlocal pot:      41.00 MB

     Dynamical RAM for                qrad:       9.63 MB

     Dynamical RAM for          rho,v,vnew:       9.04 MB

     Dynamical RAM for               rhoin:       3.01 MB

     Dynamical RAM for            rho*nmix:      21.84 MB

     Dynamical RAM for           G-vectors:       5.61 MB

     Dynamical RAM for          h,s,v(r/c):       0.34 MB

     Dynamical RAM for          <psi|beta>:       0.44 MB

     Dynamical RAM for                 psi:      20.99 MB

     Dynamical RAM for                hpsi:      20.99 MB

     Dynamical RAM for                spsi:      20.99 MB

     Dynamical RAM for      wfcinit/wfcrot:      48.71 MB

     Dynamical RAM for           addusdens:     286.71 MB

     Dynamical RAM for          addusforce:     350.29 MB

     Dynamical RAM for         addusstress:     274.42 MB

     Estimated static dynamical RAM per process >     328.31 MB

     Estimated max dynamical RAM per process >     678.60 MB

     Estimated total dynamical RAM >       5.30 GB

     Initial potential from superposition of free atoms

     starting charge  143.51799, renormalised to  144.00000
     Starting wfcs are  196 randomized atomic wfcs
     Checking if some PAW data can be deallocated... 
       PAW data deallocated on    7 nodes for type:  2

     total cpu time spent up to now is      148.5 secs

     Self-consistent Calculation

     iteration #  1     ecut=    80.00 Ry     beta= 0.70
     Davidson diagonalization with overlap
     ethr =  1.00E-02,  avg # of iterations =  3.1

     total cpu time spent up to now is      339.8 secs

     total energy              =    -942.74192829 Ry
     estimated scf accuracy    <       2.91331325 Ry

     iteration #  2     ecut=    80.00 Ry     beta= 0.70
     Davidson diagonalization with overlap
     ethr =  2.02E-03,  avg # of iterations =  3.5

     total cpu time spent up to now is      538.8 secs

     total energy              =    -943.30815805 Ry
     estimated scf accuracy    <       0.27926945 Ry

     iteration #  3     ecut=    80.00 Ry     beta= 0.70
     Davidson diagonalization with overlap
     c_bands:  1 eigenvalues not converged
     ethr =  1.94E-04,  avg # of iterations = 10.2

     total cpu time spent up to now is      754.9 secs

     total energy              =    -943.38665465 Ry
     estimated scf accuracy    <       0.01798146 Ry

     iteration #  4     ecut=    80.00 Ry     beta= 0.70
     Davidson diagonalization with overlap
     c_bands:  2 eigenvalues not converged
     c_bands:  1 eigenvalues not converged
     c_bands:  2 eigenvalues not converged
     c_bands:  1 eigenvalues not converged
     ethr =  1.25E-05,  avg # of iterations = 14.3

     total cpu time spent up to now is      995.3 secs

     total energy              =    -943.39057210 Ry
     estimated scf accuracy    <       0.00040562 Ry

     iteration #  5     ecut=    80.00 Ry     beta= 0.70
     Davidson diagonalization with overlap
     c_bands:  3 eigenvalues not converged
     c_bands:  1 eigenvalues not converged
     c_bands:  1 eigenvalues not converged
     c_bands:  2 eigenvalues not converged
     ethr =  2.82E-07,  avg # of iterations = 10.9

     total cpu time spent up to now is     1254.9 secs

     total energy              =    -943.39076630 Ry
     estimated scf accuracy    <       0.00008364 Ry

     iteration #  6     ecut=    80.00 Ry     beta= 0.70
     Davidson diagonalization with overlap
     c_bands:  1 eigenvalues not converged
     ethr =  5.81E-08,  avg # of iterations =  6.8

     total cpu time spent up to now is     1477.0 secs

     total energy              =    -943.39080490 Ry
     estimated scf accuracy    <       0.00000472 Ry

     iteration #  7     ecut=    80.00 Ry     beta= 0.70
     Davidson diagonalization with overlap
     ethr =  3.28E-09,  avg # of iterations =  5.2

     total cpu time spent up to now is     1712.4 secs

     total energy              =    -943.39080709 Ry
     estimated scf accuracy    <       0.00000010 Ry

     iteration #  8     ecut=    80.00 Ry     beta= 0.70
     Davidson diagonalization with overlap
     ethr =  7.09E-11,  avg # of iterations =  6.8

     total cpu time spent up to now is     2015.0 secs

     total energy              =    -943.39080723 Ry
     estimated scf accuracy    <       0.00000004 Ry

     iteration #  9     ecut=    80.00 Ry     beta= 0.70
     Davidson diagonalization with overlap
     ethr =  2.99E-11,  avg # of iterations =  2.0

     total cpu time spent up to now is     2195.8 secs

     End of self-consistent calculation

          k = 0.0000 0.0000 0.0000 ( 63989 PWs)   bands (ev):

   -17.3764 -17.2847 -17.2847 -17.2847 -17.2638 -17.2638 -17.2638 -17.2445
   -17.1190 -17.1190 -17.1190 -17.0431  -4.7933  -4.7933  -4.7933  -4.7933
    -4.7933  -4.7933  -4.5080  -4.5080  -4.5080  -4.3959  -4.3959  -4.3959
    -4.2761  -4.2761  -4.2761  -4.1361  -4.1361  -4.1361  -3.9699  -3.9699
    -3.9699  -3.9699  -3.9699  -3.9699  -3.9286  -3.9286  -3.9286  -3.7236
    -3.7236  -3.7236  -3.6034  -3.6034  -3.6034  -3.6034  -3.6034  -3.6034
    -1.4607  -1.0613  -1.0613  -1.0613   1.9539   1.9539   1.9539   2.0624
     2.0624   2.0624   2.3403   2.3403   2.3403   2.3403   2.3403   2.3403
     3.3338   3.3338   3.4800   3.4800   3.4800   3.6565   3.6565   3.6565
     6.6310   6.6310   6.6310   6.8952   8.0003   8.0005   8.0007   8.3180
     8.3180   8.3180   8.5935   8.5936   8.5936   8.8559

     occupation numbers 
     1.0000   1.0000   1.0000   1.0000   1.0000   1.0000   1.0000   1.0000
     1.0000   1.0000   1.0000   1.0000   1.0000   1.0000   1.0000   1.0000
     1.0000   1.0000   1.0000   1.0000   1.0000   1.0000   1.0000   1.0000
     1.0000   1.0000   1.0000   1.0000   1.0000   1.0000   1.0000   1.0000
     1.0000   1.0000   1.0000   1.0000   1.0000   1.0000   1.0000   1.0000
     1.0000   1.0000   1.0000   1.0000   1.0000   1.0000   1.0000   1.0000
     1.0000   1.0000   1.0000   1.0000   1.0000   1.0000   1.0000   1.0000
     1.0000   1.0000   1.0000   1.0000   1.0000   1.0000   1.0000   1.0000
     1.0000   1.0000   1.0000   1.0000   1.0000   1.0000   1.0000   1.0000
     0.0000   0.0000   0.0000   0.0000   0.0000   0.0000   0.0000   0.0000
     0.0000   0.0000   0.0000   0.0000   0.0000   0.0000

          k = 0.0000 0.0000 0.1413 ( 63933 PWs)   bands (ev):

   -17.3729 -17.2911 -17.2837 -17.2837 -17.2648 -17.2648 -17.2628 -17.2454
   -17.1190 -17.1190 -17.1133 -17.0458  -4.8124  -4.8123  -4.7809  -4.7809
    -4.7718  -4.7718  -4.4943  -4.4809  -4.4809  -4.4446  -4.4446  -4.3962
    -4.2599  -4.2350  -4.2350  -4.2157  -4.2157  -4.1307  -3.9808  -3.9808
    -3.9679  -3.9679  -3.9469  -3.9306  -3.9306  -3.9054  -3.9054  -3.7587
    -3.7143  -3.7143  -3.6114  -3.6114  -3.6111  -3.6111  -3.6061  -3.6061
    -1.4179  -1.0572  -1.0570  -1.0570   1.8713   1.9718   1.9718   1.9733
     2.0751   2.0751   2.2796   2.2796   2.3193   2.3193   2.3254   2.3254
     3.3478   3.4221   3.4941   3.4942   3.5647   3.6381   3.7223   3.7223
     6.7020   6.7020   6.7174   6.9990   7.9903   7.9903   8.0626   8.3435
     8.3781   8.3781   8.5118   8.6190   8.6191   8.7110

     occupation numbers 
     1.0000   1.0000   1.0000   1.0000   1.0000   1.0000   1.0000   1.0000
     1.0000   1.0000   1.0000   1.0000   1.0000   1.0000   1.0000   1.0000
     1.0000   1.0000   1.0000   1.0000   1.0000   1.0000   1.0000   1.0000
     1.0000   1.0000   1.0000   1.0000   1.0000   1.0000   1.0000   1.0000
     1.0000   1.0000   1.0000   1.0000   1.0000   1.0000   1.0000   1.0000
     1.0000   1.0000   1.0000   1.0000   1.0000   1.0000   1.0000   1.0000
     1.0000   1.0000   1.0000   1.0000   1.0000   1.0000   1.0000   1.0000
     1.0000   1.0000   1.0000   1.0000   1.0000   1.0000   1.0000   1.0000
     1.0000   1.0000   1.0000   1.0000   1.0000   1.0000   1.0000   1.0000
     0.0000   0.0000   0.0000   0.0000   0.0000   0.0000   0.0000   0.0000
     0.0000   0.0000   0.0000   0.0000   0.0000   0.0000

          k = 0.0000 0.0000 0.2826 ( 63990 PWs)   bands (ev):

   -17.3627 -17.3073 -17.2808 -17.2808 -17.2677 -17.2677 -17.2602 -17.2481
   -17.1190 -17.1190 -17.0994 -17.0539  -4.8470  -4.8470  -4.7446  -4.7446
    -4.7092  -4.7092  -4.5283  -4.5283  -4.4605  -4.4272  -4.4272  -4.3982
    -4.3501  -4.3501  -4.2140  -4.1708  -4.1708  -4.1076  -4.0111  -4.0111
    -3.9976  -3.9623  -3.9623  -3.9364  -3.9364  -3.8486  -3.8129  -3.8129
    -3.6903  -3.6903  -3.6349  -3.6349  -3.6303  -3.6303  -3.6156  -3.6156
    -1.3101  -1.0584  -1.0472  -1.0471   1.7142   1.7926   2.0226   2.0226
     2.1114   2.1114   2.1616   2.1616   2.2620   2.2620   2.2845   2.2845
     3.3878   3.5107   3.5107   3.5880   3.6048   3.7220   3.8679   3.8680
     6.9059   6.9059   6.9679   7.2870   7.8755   7.8755   8.2427   8.3276
     8.3382   8.3965   8.5493   8.5509   8.6994   8.6996

     occupation numbers 
     1.0000   1.0000   1.0000   1.0000   1.0000   1.0000   1.0000   1.0000
     1.0000   1.0000   1.0000   1.0000   1.0000   1.0000   1.0000   1.0000
     1.0000   1.0000   1.0000   1.0000   1.0000   1.0000   1.0000   1.0000
     1.0000   1.0000   1.0000   1.0000   1.0000   1.0000   1.0000   1.0000
     1.0000   1.0000   1.0000   1.0000   1.0000   1.0000   1.0000   1.0000
     1.0000   1.0000   1.0000   1.0000   1.0000   1.0000   1.0000   1.0000
     1.0000   1.0000   1.0000   1.0000   1.0000   1.0000   1.0000   1.0000
     1.0000   1.0000   1.0000   1.0000   1.0000   1.0000   1.0000   1.0000
     1.0000   1.0000   1.0000   1.0000   1.0000   1.0000   1.0000   1.0000
     0.0000   0.0000   0.0000   0.0000   0.0000   0.0000   0.0000   0.0000
     0.0000   0.0000   0.0000   0.0000   0.0000   0.0000

          k = 0.0000 0.0000 0.4239 ( 64006 PWs)   bands (ev):

   -17.3469 -17.3274 -17.2766 -17.2766 -17.2719 -17.2719 -17.2563 -17.2520
   -17.1190 -17.1190 -17.0825 -17.0665  -4.8698  -4.8698  -4.6870  -4.6870
    -4.6127  -4.6127  -4.6114  -4.6114  -4.4877  -4.4877  -4.4262  -4.4059
    -4.3881  -4.3881  -4.1463  -4.1100  -4.1100  -4.0692  -4.0558  -4.0558
    -4.0516  -3.9583  -3.9543  -3.9543  -3.9445  -3.9445  -3.7348  -3.7348
    -3.6756  -3.6756  -3.6606  -3.6606  -3.6465  -3.6465  -3.6340  -3.6340
    -1.1861  -1.0954  -1.0391  -1.0391   1.6179   1.6483   2.0794   2.0794
     2.0971   2.0971   2.1652   2.1652   2.1823   2.1823   2.2270   2.2270
     3.4483   3.5192   3.5193   3.5196   3.7602   3.8077   3.9780   3.9780
     7.2154   7.2154   7.3563   7.5767   7.5767   7.6886   7.8356   8.0787
     8.4885   8.4889   8.5090   8.5720   8.6042   8.6044

     occupation numbers 
     1.0000   1.0000   1.0000   1.0000   1.0000   1.0000   1.0000   1.0000
     1.0000   1.0000   1.0000   1.0000   1.0000   1.0000   1.0000   1.0000
     1.0000   1.0000   1.0000   1.0000   1.0000   1.0000   1.0000   1.0000
     1.0000   1.0000   1.0000   1.0000   1.0000   1.0000   1.0000   1.0000
     1.0000   1.0000   1.0000   1.0000   1.0000   1.0000   1.0000   1.0000
     1.0000   1.0000   1.0000   1.0000   1.0000   1.0000   1.0000   1.0000
     1.0000   1.0000   1.0000   1.0000   1.0000   1.0000   1.0000   1.0000
     1.0000   1.0000   1.0000   1.0000   1.0000   1.0000   1.0000   1.0000
     1.0000   1.0000   1.0000   1.0000   1.0000   1.0000   1.0000   1.0000
     0.0000   0.0000   0.0000   0.0000   0.0000   0.0000   0.0000   0.0000
     0.0000   0.0000   0.0000   0.0000   0.0000   0.0000

          k = 0.0000 0.1413 0.1413 ( 63915 PWs)   bands (ev):

   -17.3695 -17.2899 -17.2899 -17.2826 -17.2662 -17.2639 -17.2639 -17.2464
   -17.1186 -17.1136 -17.1136 -17.0485  -4.8070  -4.7983  -4.7983  -4.7734
    -4.7601  -4.7600  -4.4717  -4.4717  -4.4701  -4.4645  -4.4556  -4.4142
    -4.2617  -4.2612  -4.2107  -4.2107  -4.2093  -4.1990  -3.9858  -3.9788
    -3.9788  -3.9497  -3.9497  -3.9332  -3.9133  -3.9133  -3.8548  -3.7723
    -3.7200  -3.7055  -3.6271  -3.6138  -3.6138  -3.6123  -3.6123  -3.6103
    -1.3791  -1.0530  -1.0530  -1.0528   1.8912   1.8912   1.9769   1.9888
     1.9986   2.0868   2.2432   2.2638   2.2638   2.2748   2.3069   2.3070
     3.3982   3.4740   3.5186   3.5745   3.5745   3.7090   3.7090   3.7766
     6.7698   6.7832   6.7832   7.0968   8.0044   8.0420   8.0420   8.3706
     8.3831   8.3831   8.3882   8.4164   8.5488   8.5489

     occupation numbers 
     1.0000   1.0000   1.0000   1.0000   1.0000   1.0000   1.0000   1.0000
     1.0000   1.0000   1.0000   1.0000   1.0000   1.0000   1.0000   1.0000
     1.0000   1.0000   1.0000   1.0000   1.0000   1.0000   1.0000   1.0000
     1.0000   1.0000   1.0000   1.0000   1.0000   1.0000   1.0000   1.0000
     1.0000   1.0000   1.0000   1.0000   1.0000   1.0000   1.0000   1.0000
     1.0000   1.0000   1.0000   1.0000   1.0000   1.0000   1.0000   1.0000
     1.0000   1.0000   1.0000   1.0000   1.0000   1.0000   1.0000   1.0000
     1.0000   1.0000   1.0000   1.0000   1.0000   1.0000   1.0000   1.0000
     1.0000   1.0000   1.0000   1.0000   1.0000   1.0000   1.0000   1.0000
     0.0000   0.0000   0.0000   0.0000   0.0000   0.0000   0.0000   0.0000
     0.0000   0.0000   0.0000   0.0000   0.0000   0.0000

          k = 0.0000 0.1413 0.2826 ( 63992 PWs)   bands (ev):

   -17.3595 -17.3055 -17.2863 -17.2798 -17.2699 -17.2668 -17.2612 -17.2491
   -17.1178 -17.1143 -17.1002 -17.0562  -4.8313  -4.8305  -4.7577  -4.7259
    -4.7201  -4.6997  -4.5336  -4.5320  -4.4509  -4.4401  -4.4227  -4.4045
    -4.3669  -4.3275  -4.2270  -4.1916  -4.1668  -4.1445  -4.0153  -3.9952
    -3.9915  -3.9740  -3.9565  -3.9398  -3.9320  -3.8387  -3.8199  -3.7795
    -3.7006  -3.6830  -3.6538  -3.6318  -3.6313  -3.6238  -3.6229  -3.6181
    -1.2811  -1.0535  -1.0434  -1.0433   1.7373   1.8092   1.9469   2.0304
     2.0365   2.1199   2.1349   2.1439   2.2075   2.2200   2.2559   2.2724
     3.4499   3.5501   3.5796   3.6384   3.6445   3.7563   3.8683   3.9054
     6.9647   6.9739   7.0184   7.3677   7.9016   7.9300   8.1687   8.2600
     8.3801   8.4125   8.4168   8.4501   8.4537   8.5146

     occupation numbers 
     1.0000   1.0000   1.0000   1.0000   1.0000   1.0000   1.0000   1.0000
     1.0000   1.0000   1.0000   1.0000   1.0000   1.0000   1.0000   1.0000
     1.0000   1.0000   1.0000   1.0000   1.0000   1.0000   1.0000   1.0000
     1.0000   1.0000   1.0000   1.0000   1.0000   1.0000   1.0000   1.0000
     1.0000   1.0000   1.0000   1.0000   1.0000   1.0000   1.0000   1.0000
     1.0000   1.0000   1.0000   1.0000   1.0000   1.0000   1.0000   1.0000
     1.0000   1.0000   1.0000   1.0000   1.0000   1.0000   1.0000   1.0000
     1.0000   1.0000   1.0000   1.0000   1.0000   1.0000   1.0000   1.0000
     1.0000   1.0000   1.0000   1.0000   1.0000   1.0000   1.0000   1.0000
     0.0000   0.0000   0.0000   0.0000   0.0000   0.0000   0.0000   0.0000
     0.0000   0.0000   0.0000   0.0000   0.0000   0.0000

          k = 0.0000 0.1413 0.4239 ( 63980 PWs)   bands (ev):

   -17.3440 -17.3251 -17.2811 -17.2756 -17.2753 -17.2710 -17.2573 -17.2530
   -17.1166 -17.1153 -17.0839 -17.0685  -4.8520  -4.8519  -4.6951  -4.6723
    -4.6259  -4.6171  -4.6062  -4.6047  -4.5110  -4.4902  -4.4334  -4.4256
    -4.3654  -4.3572  -4.1623  -4.1580  -4.1422  -4.0907  -4.0850  -4.0409
    -3.9850  -3.9753  -3.9575  -3.9489  -3.9440  -3.9140  -3.7435  -3.7142
    -3.6895  -3.6693  -3.6648  -3.6558  -3.6462  -3.6425  -3.6414  -3.6325
    -1.1684  -1.0864  -1.0356  -1.0355   1.6419   1.6697   2.0257   2.0551
     2.0621   2.0901   2.1059   2.1225   2.1578   2.1682   2.1840   2.2227
     3.5106   3.5689   3.5781   3.5791   3.7963   3.8397   3.9913   4.0033
     7.2607   7.2693   7.3811   7.6058   7.6268   7.7430   7.8217   8.0926
     8.4278   8.4845   8.4880   8.5437   8.5546   8.5824

     occupation numbers 
     1.0000   1.0000   1.0000   1.0000   1.0000   1.0000   1.0000   1.0000
     1.0000   1.0000   1.0000   1.0000   1.0000   1.0000   1.0000   1.0000
     1.0000   1.0000   1.0000   1.0000   1.0000   1.0000   1.0000   1.0000
     1.0000   1.0000   1.0000   1.0000   1.0000   1.0000   1.0000   1.0000
     1.0000   1.0000   1.0000   1.0000   1.0000   1.0000   1.0000   1.0000
     1.0000   1.0000   1.0000   1.0000   1.0000   1.0000   1.0000   1.0000
     1.0000   1.0000   1.0000   1.0000   1.0000   1.0000   1.0000   1.0000
     1.0000   1.0000   1.0000   1.0000   1.0000   1.0000   1.0000   1.0000
     1.0000   1.0000   1.0000   1.0000   1.0000   1.0000   1.0000   1.0000
     0.0000   0.0000   0.0000   0.0000   0.0000   0.0000   0.0000   0.0000
     0.0000   0.0000   0.0000   0.0000   0.0000   0.0000

          k = 0.0000 0.2826 0.2826 ( 63977 PWs)   bands (ev):

   -17.3502 -17.3005 -17.3005 -17.2769 -17.2759 -17.2641 -17.2641 -17.2518
   -17.1145 -17.1025 -17.1025 -17.0632  -4.8042  -4.7831  -4.7831  -4.7175
    -4.6726  -4.6726  -4.5612  -4.5500  -4.4672  -4.4613  -4.4613  -4.4194
    -4.3575  -4.2786  -4.2786  -4.2209  -4.1642  -4.1026  -4.0301  -4.0269
    -4.0269  -3.9872  -3.9872  -3.9487  -3.8362  -3.8362  -3.8320  -3.7242
    -3.7077  -3.6823  -3.6650  -3.6393  -3.6393  -3.6296  -3.6271  -3.6271
    -1.2079  -1.0419  -1.0418  -1.0347   1.8017   1.8017   1.8304   1.8946
     2.0577   2.0750   2.0939   2.0939   2.1065   2.1432   2.2380   2.2380
     3.5391   3.6104   3.6677   3.6677   3.7747   3.9013   3.9014   4.0009
     7.1347   7.1689   7.1689   7.5862   7.9699   7.9700   8.0575   8.0721
     8.1505   8.4515   8.4517   8.4991   8.6046   8.6047

     occupation numbers 
     1.0000   1.0000   1.0000   1.0000   1.0000   1.0000   1.0000   1.0000
     1.0000   1.0000   1.0000   1.0000   1.0000   1.0000   1.0000   1.0000
     1.0000   1.0000   1.0000   1.0000   1.0000   1.0000   1.0000   1.0000
     1.0000   1.0000   1.0000   1.0000   1.0000   1.0000   1.0000   1.0000
     1.0000   1.0000   1.0000   1.0000   1.0000   1.0000   1.0000   1.0000
     1.0000   1.0000   1.0000   1.0000   1.0000   1.0000   1.0000   1.0000
     1.0000   1.0000   1.0000   1.0000   1.0000   1.0000   1.0000   1.0000
     1.0000   1.0000   1.0000   1.0000   1.0000   1.0000   1.0000   1.0000
     1.0000   1.0000   1.0000   1.0000   1.0000   1.0000   1.0000   1.0000
     0.0000   0.0000   0.0000   0.0000   0.0000   0.0000   0.0000   0.0000
     0.0000   0.0000   0.0000   0.0000   0.0000   0.0000

          k = 0.0000 0.2826 0.4239 ( 63989 PWs)   bands (ev):

   -17.3359 -17.3183 -17.2929 -17.2842 -17.2728 -17.2682 -17.2601 -17.2558
   -17.1103 -17.1060 -17.0880 -17.0742  -4.8038  -4.8010  -4.7120  -4.6478
    -4.6322  -4.6297  -4.5929  -4.5870  -4.5448  -4.5016  -4.4835  -4.4777
    -4.3183  -4.3016  -4.2232  -4.1804  -4.1756  -4.1037  -4.0604  -4.0448
    -4.0399  -4.0210  -3.9751  -3.9613  -3.8495  -3.8462  -3.7627  -3.7153
    -3.6855  -3.6778  -3.6575  -3.6508  -3.6458  -3.6448  -3.6444  -3.6308
    -1.1241  -1.0642  -1.0313  -1.0287   1.7088   1.7282   1.8937   1.9426
     1.9817   2.0041   2.0122   2.0216   2.1291   2.1757   2.1872   2.2097
     3.6047   3.6467   3.6574   3.6644   3.9119   3.9538   4.0398   4.0729
     7.3933   7.4149   7.4597   7.6936   7.7443   7.7870   7.8606   8.0146
     8.4040   8.4110   8.4133   8.4442   8.4560   8.5014

     occupation numbers 
     1.0000   1.0000   1.0000   1.0000   1.0000   1.0000   1.0000   1.0000
     1.0000   1.0000   1.0000   1.0000   1.0000   1.0000   1.0000   1.0000
     1.0000   1.0000   1.0000   1.0000   1.0000   1.0000   1.0000   1.0000
     1.0000   1.0000   1.0000   1.0000   1.0000   1.0000   1.0000   1.0000
     1.0000   1.0000   1.0000   1.0000   1.0000   1.0000   1.0000   1.0000
     1.0000   1.0000   1.0000   1.0000   1.0000   1.0000   1.0000   1.0000
     1.0000   1.0000   1.0000   1.0000   1.0000   1.0000   1.0000   1.0000
     1.0000   1.0000   1.0000   1.0000   1.0000   1.0000   1.0000   1.0000
     1.0000   1.0000   1.0000   1.0000   1.0000   1.0000   1.0000   1.0000
     0.0000   0.0000   0.0000   0.0000   0.0000   0.0000   0.0000   0.0000
     0.0000   0.0000   0.0000   0.0000   0.0000   0.0000

          k = 0.0000 0.4239 0.4239 ( 63983 PWs)   bands (ev):

   -17.3233 -17.3082 -17.3082 -17.2961 -17.2687 -17.2642 -17.2642 -17.2598
   -17.1022 -17.0944 -17.0943 -17.0831  -4.7511  -4.7279  -4.7279  -4.6602
    -4.6364  -4.5789  -4.5789  -4.5750  -4.5633  -4.5633  -4.5466  -4.5306
    -4.2754  -4.2488  -4.2488  -4.2097  -4.1609  -4.1108  -4.1108  -4.0928
    -4.0295  -4.0001  -4.0001  -3.9793  -3.8026  -3.7821  -3.7821  -3.7432
    -3.6853  -3.6662  -3.6661  -3.6569  -3.6494  -3.6353  -3.6346  -3.6346
    -1.0744  -1.0410  -1.0410  -1.0282   1.7922   1.8045   1.8045   1.8533
     1.9102   1.9104   1.9217   1.9218   2.1591   2.1835   2.1878   2.1878
     3.6608   3.6841   3.6863   3.6863   4.0408   4.0844   4.0844   4.1263
     7.5955   7.5958   7.5958   7.7255   7.7534   7.8220   7.8220   7.9093
     8.1875   8.3024   8.3219   8.3220   8.3280   8.3283

     occupation numbers 
     1.0000   1.0000   1.0000   1.0000   1.0000   1.0000   1.0000   1.0000
     1.0000   1.0000   1.0000   1.0000   1.0000   1.0000   1.0000   1.0000
     1.0000   1.0000   1.0000   1.0000   1.0000   1.0000   1.0000   1.0000
     1.0000   1.0000   1.0000   1.0000   1.0000   1.0000   1.0000   1.0000
     1.0000   1.0000   1.0000   1.0000   1.0000   1.0000   1.0000   1.0000
     1.0000   1.0000   1.0000   1.0000   1.0000   1.0000   1.0000   1.0000
     1.0000   1.0000   1.0000   1.0000   1.0000   1.0000   1.0000   1.0000
     1.0000   1.0000   1.0000   1.0000   1.0000   1.0000   1.0000   1.0000
     1.0000   1.0000   1.0000   1.0000   1.0000   1.0000   1.0000   1.0000
     0.0000   0.0000   0.0000   0.0000   0.0000   0.0000   0.0000   0.0000
     0.0000   0.0000   0.0000   0.0000   0.0000   0.0000

          k = 0.1413 0.1413 0.1413 ( 63896 PWs)   bands (ev):

   -17.3661 -17.2887 -17.2887 -17.2887 -17.2651 -17.2651 -17.2651 -17.2474
   -17.1135 -17.1135 -17.1135 -17.0510  -4.7924  -4.7924  -4.7924  -4.7615
    -4.7615  -4.7615  -4.4962  -4.4516  -4.4516  -4.4516  -4.4515  -4.4515
    -4.2529  -4.2529  -4.2529  -4.2321  -4.2321  -4.1628  -3.9970  -3.9970
    -3.9970  -3.9531  -3.9531  -3.9531  -3.8623  -3.8623  -3.8623  -3.7809
    -3.7108  -3.7108  -3.6269  -3.6269  -3.6269  -3.6121  -3.6121  -3.6121
    -1.3437  -1.0488  -1.0487  -1.0487   1.9098   1.9098   1.9098   1.9831
     2.0100   2.0100   2.2304   2.2304   2.2304   2.2608   2.2609   2.2609
     3.4872   3.4872   3.6037   3.6037   3.6038   3.7595   3.7595   3.7595
     6.8466   6.8466   6.8466   7.1896   8.0541   8.0542   8.0543   8.3622
     8.3623   8.3623   8.4767   8.5664   8.5669   8.5670

     occupation numbers 
     1.0000   1.0000   1.0000   1.0000   1.0000   1.0000   1.0000   1.0000
     1.0000   1.0000   1.0000   1.0000   1.0000   1.0000   1.0000   1.0000
     1.0000   1.0000   1.0000   1.0000   1.0000   1.0000   1.0000   1.0000
     1.0000   1.0000   1.0000   1.0000   1.0000   1.0000   1.0000   1.0000
     1.0000   1.0000   1.0000   1.0000   1.0000   1.0000   1.0000   1.0000
     1.0000   1.0000   1.0000   1.0000   1.0000   1.0000   1.0000   1.0000
     1.0000   1.0000   1.0000   1.0000   1.0000   1.0000   1.0000   1.0000
     1.0000   1.0000   1.0000   1.0000   1.0000   1.0000   1.0000   1.0000
     1.0000   1.0000   1.0000   1.0000   1.0000   1.0000   1.0000   1.0000
     0.0000   0.0000   0.0000   0.0000   0.0000   0.0000   0.0000   0.0000
     0.0000   0.0000   0.0000   0.0000   0.0000   0.0000

          k = 0.1413 0.1413 0.2826 ( 63976 PWs)   bands (ev):

   -17.3564 -17.3038 -17.2854 -17.2854 -17.2686 -17.2686 -17.2623 -17.2501
   -17.1134 -17.1133 -17.1007 -17.0585  -4.8150  -4.8150  -4.7508  -4.7268
    -4.7098  -4.7098  -4.5465  -4.5245  -4.4451  -4.4447  -4.4318  -4.4318
    -4.3307  -4.3307  -4.2250  -4.2206  -4.1784  -4.1309  -4.0277  -4.0072
    -4.0028  -4.0028  -3.9618  -3.9618  -3.8791  -3.8270  -3.7872  -3.7872
    -3.6968  -3.6874  -3.6493  -3.6493  -3.6304  -3.6241  -3.6241  -3.6193
    -1.2542  -1.0481  -1.0390  -1.0390   1.7585   1.8250   1.9616   1.9617
     2.0370   2.0422   2.1205   2.1205   2.1947   2.1993   2.1993   2.2213
     3.5251   3.6280   3.6281   3.6707   3.7129   3.7656   3.8980   3.8980
     7.0305   7.0305   7.0685   7.4463   7.9569   7.9569   8.1921   8.1949
     8.2994   8.3912   8.3912   8.4698   8.5459   8.5460

     occupation numbers 
     1.0000   1.0000   1.0000   1.0000   1.0000   1.0000   1.0000   1.0000
     1.0000   1.0000   1.0000   1.0000   1.0000   1.0000   1.0000   1.0000
     1.0000   1.0000   1.0000   1.0000   1.0000   1.0000   1.0000   1.0000
     1.0000   1.0000   1.0000   1.0000   1.0000   1.0000   1.0000   1.0000
     1.0000   1.0000   1.0000   1.0000   1.0000   1.0000   1.0000   1.0000
     1.0000   1.0000   1.0000   1.0000   1.0000   1.0000   1.0000   1.0000
     1.0000   1.0000   1.0000   1.0000   1.0000   1.0000   1.0000   1.0000
     1.0000   1.0000   1.0000   1.0000   1.0000   1.0000   1.0000   1.0000
     1.0000   1.0000   1.0000   1.0000   1.0000   1.0000   1.0000   1.0000
     0.0000   0.0000   0.0000   0.0000   0.0000   0.0000   0.0000   0.0000
     0.0000   0.0000   0.0000   0.0000   0.0000   0.0000

          k = 0.1413 0.1413 0.4239 ( 64017 PWs)   bands (ev):

   -17.3413 -17.3228 -17.2810 -17.2810 -17.2731 -17.2731 -17.2584 -17.2540
   -17.1132 -17.1132 -17.0851 -17.0703  -4.8345  -4.8345  -4.6886  -4.6721
    -4.6197  -4.6197  -4.6158  -4.6022  -4.5107  -4.5107  -4.4426  -4.4417
    -4.3379  -4.3379  -4.1822  -4.1768  -4.1233  -4.1204  -4.0780  -4.0717
    -3.9980  -3.9980  -3.9715  -3.9715  -3.8917  -3.8777  -3.7258  -3.7258
    -3.6750  -3.6750  -3.6683  -3.6591  -3.6439  -3.6414  -3.6414  -3.6349
    -1.1514  -1.0771  -1.0311  -1.0311   1.6638   1.6894   2.0297   2.0297
     2.0454   2.0455   2.0899   2.0971   2.1224   2.1224   2.1443   2.1631
     3.5821   3.6364   3.6365   3.6490   3.8225   3.8608   4.0095   4.0095
     7.3145   7.3145   7.4063   7.6581   7.6581   7.7729   7.8387   8.1348
     8.4386   8.4390   8.4394   8.5272   8.5722   8.5724

     occupation numbers 
     1.0000   1.0000   1.0000   1.0000   1.0000   1.0000   1.0000   1.0000
     1.0000   1.0000   1.0000   1.0000   1.0000   1.0000   1.0000   1.0000
     1.0000   1.0000   1.0000   1.0000   1.0000   1.0000   1.0000   1.0000
     1.0000   1.0000   1.0000   1.0000   1.0000   1.0000   1.0000   1.0000
     1.0000   1.0000   1.0000   1.0000   1.0000   1.0000   1.0000   1.0000
     1.0000   1.0000   1.0000   1.0000   1.0000   1.0000   1.0000   1.0000
     1.0000   1.0000   1.0000   1.0000   1.0000   1.0000   1.0000   1.0000
     1.0000   1.0000   1.0000   1.0000   1.0000   1.0000   1.0000   1.0000
     1.0000   1.0000   1.0000   1.0000   1.0000   1.0000   1.0000   1.0000
     0.0000   0.0000   0.0000   0.0000   0.0000   0.0000   0.0000   0.0000
     0.0000   0.0000   0.0000   0.0000   0.0000   0.0000

          k = 0.1413 0.2826 0.2826 ( 63966 PWs)   bands (ev):

   -17.3473 -17.2991 -17.2991 -17.2833 -17.2730 -17.2656 -17.2656 -17.2529
   -17.1110 -17.1023 -17.1023 -17.0651  -4.7880  -4.7687  -4.7687  -4.7074
    -4.6806  -4.6806  -4.5713  -4.5384  -4.4830  -4.4627  -4.4627  -4.4485
    -4.3207  -4.2742  -4.2742  -4.2125  -4.1712  -4.1161  -4.0416  -4.0398
    -4.0398  -4.0118  -4.0118  -3.9740  -3.8141  -3.8035  -3.8035  -3.7350
    -3.6990  -3.6711  -3.6706  -3.6458  -3.6458  -3.6289  -3.6265  -3.6265
    -1.1861  -1.0357  -1.0357  -1.0293   1.8175   1.8175   1.8456   1.9025
     2.0021   2.0494   2.0654   2.0787   2.0787   2.0962   2.1761   2.1761
     3.6290   3.6965   3.7462   3.7462   3.7849   3.9056   3.9056   3.9886
     7.1949   7.2168   7.2169   7.6552   8.0291   8.0292   8.0323   8.0836
     8.1524   8.3563   8.3563   8.4754   8.4756   8.4808

     occupation numbers 
     1.0000   1.0000   1.0000   1.0000   1.0000   1.0000   1.0000   1.0000
     1.0000   1.0000   1.0000   1.0000   1.0000   1.0000   1.0000   1.0000
     1.0000   1.0000   1.0000   1.0000   1.0000   1.0000   1.0000   1.0000
     1.0000   1.0000   1.0000   1.0000   1.0000   1.0000   1.0000   1.0000
     1.0000   1.0000   1.0000   1.0000   1.0000   1.0000   1.0000   1.0000
     1.0000   1.0000   1.0000   1.0000   1.0000   1.0000   1.0000   1.0000
     1.0000   1.0000   1.0000   1.0000   1.0000   1.0000   1.0000   1.0000
     1.0000   1.0000   1.0000   1.0000   1.0000   1.0000   1.0000   1.0000
     1.0000   1.0000   1.0000   1.0000   1.0000   1.0000   1.0000   1.0000
     0.0000   0.0000   0.0000   0.0000   0.0000   0.0000   0.0000   0.0000
     0.0000   0.0000   0.0000   0.0000   0.0000   0.0000

          k = 0.1413 0.2826 0.4239 ( 63988 PWs)   bands (ev):

   -17.3334 -17.3164 -17.2923 -17.2852 -17.2742 -17.2701 -17.2615 -17.2570
   -17.1078 -17.1048 -17.0886 -17.0755  -4.7877  -4.7852  -4.7006  -4.6404
    -4.6370  -4.6254  -4.6036  -4.5868  -4.5432  -4.5170  -4.4921  -4.4836
    -4.2966  -4.2857  -4.2178  -4.1858  -4.1655  -4.1072  -4.0936  -4.0563
    -4.0560  -4.0511  -4.0045  -3.9898  -3.8187  -3.8171  -3.7446  -3.7140
    -3.6795  -3.6728  -3.6574  -3.6562  -3.6496  -3.6421  -3.6409  -3.6340
    -1.1087  -1.0545  -1.0246  -1.0223   1.7247   1.7430   1.9015   1.9463
     1.9763   1.9906   2.0041   2.0165   2.0606   2.1019   2.1217   2.1415
     3.6918   3.7294   3.7426   3.7434   3.9212   3.9576   4.0426   4.0681
     7.4475   7.4571   7.4852   7.7516   7.7567   7.7792   7.9580   8.0882
     8.2484   8.3213   8.3651   8.4100   8.4154   8.4433

     occupation numbers 
     1.0000   1.0000   1.0000   1.0000   1.0000   1.0000   1.0000   1.0000
     1.0000   1.0000   1.0000   1.0000   1.0000   1.0000   1.0000   1.0000
     1.0000   1.0000   1.0000   1.0000   1.0000   1.0000   1.0000   1.0000
     1.0000   1.0000   1.0000   1.0000   1.0000   1.0000   1.0000   1.0000
     1.0000   1.0000   1.0000   1.0000   1.0000   1.0000   1.0000   1.0000
     1.0000   1.0000   1.0000   1.0000   1.0000   1.0000   1.0000   1.0000
     1.0000   1.0000   1.0000   1.0000   1.0000   1.0000   1.0000   1.0000
     1.0000   1.0000   1.0000   1.0000   1.0000   1.0000   1.0000   1.0000
     1.0000   1.0000   1.0000   1.0000   1.0000   1.0000   1.0000   1.0000
     0.0000   0.0000   0.0000   0.0000   0.0000   0.0000   0.0000   0.0000
     0.0000   0.0000   0.0000   0.0000   0.0000   0.0000

          k = 0.1413 0.4239 0.4239 ( 64015 PWs)   bands (ev):

   -17.3213 -17.3068 -17.3068 -17.2955 -17.2706 -17.2658 -17.2658 -17.2612
   -17.1009 -17.0941 -17.0941 -17.0838  -4.7371  -4.7153  -4.7153  -4.6525
    -4.6298  -4.5858  -4.5858  -4.5774  -4.5615  -4.5615  -4.5475  -4.5411
    -4.2590  -4.2366  -4.2366  -4.2016  -4.1661  -4.1193  -4.1193  -4.1033
    -4.0650  -4.0349  -4.0349  -4.0120  -3.7802  -3.7619  -3.7619  -3.7316
    -3.6785  -3.6625  -3.6625  -3.6530  -3.6503  -3.6392  -3.6370  -3.6370
    -1.0616  -1.0313  -1.0313  -1.0197   1.8006   1.8115   1.8115   1.8563
     1.9073   1.9075   1.9177   1.9177   2.0897   2.1115   2.1186   2.1187
     3.7499   3.7716   3.7737   3.7737   4.0450   4.0845   4.0845   4.1220
     7.6187   7.6187   7.6492   7.7129   7.7862   7.8922   7.8922   8.0050
     8.1896   8.2715   8.2715   8.3141   8.3670   8.3716

     occupation numbers 
     1.0000   1.0000   1.0000   1.0000   1.0000   1.0000   1.0000   1.0000
     1.0000   1.0000   1.0000   1.0000   1.0000   1.0000   1.0000   1.0000
     1.0000   1.0000   1.0000   1.0000   1.0000   1.0000   1.0000   1.0000
     1.0000   1.0000   1.0000   1.0000   1.0000   1.0000   1.0000   1.0000
     1.0000   1.0000   1.0000   1.0000   1.0000   1.0000   1.0000   1.0000
     1.0000   1.0000   1.0000   1.0000   1.0000   1.0000   1.0000   1.0000
     1.0000   1.0000   1.0000   1.0000   1.0000   1.0000   1.0000   1.0000
     1.0000   1.0000   1.0000   1.0000   1.0000   1.0000   1.0000   1.0000
     1.0000   1.0000   1.0000   1.0000   1.0000   1.0000   1.0000   1.0000
     0.0000   0.0000   0.0000   0.0000   0.0000   0.0000   0.0000   0.0000
     0.0000   0.0000   0.0000   0.0000   0.0000   0.0000

          k = 0.2826 0.2826 0.2826 ( 63980 PWs)   bands (ev):

   -17.3390 -17.2956 -17.2956 -17.2956 -17.2696 -17.2696 -17.2696 -17.2559
   -17.1019 -17.1019 -17.1019 -17.0707  -4.7435  -4.7435  -4.7435  -4.6780
    -4.6780  -4.6780  -4.5902  -4.5245  -4.5245  -4.4852  -4.4852  -4.4852
    -4.2627  -4.2627  -4.2627  -4.1889  -4.1889  -4.1327  -4.0720  -4.0720
    -4.0720  -4.0366  -4.0366  -4.0366  -3.7855  -3.7519  -3.7519  -3.7519
    -3.6780  -3.6780  -3.6571  -3.6571  -3.6570  -3.6299  -3.6299  -3.6299
    -1.1315  -1.0218  -1.0217  -1.0217   1.8611   1.8611   1.8611   1.8727
     1.9246   1.9246   2.0263   2.0263   2.0263   2.0648   2.0648   2.0648
     3.8141   3.8141   3.8673   3.8673   3.8673   3.9548   3.9548   3.9548
     7.3584   7.3584   7.3584   7.7877   7.9944   8.1591   8.1592   8.1597
     8.1662   8.1662   8.1662   8.4108   8.4108   8.4108

     occupation numbers 
     1.0000   1.0000   1.0000   1.0000   1.0000   1.0000   1.0000   1.0000
     1.0000   1.0000   1.0000   1.0000   1.0000   1.0000   1.0000   1.0000
     1.0000   1.0000   1.0000   1.0000   1.0000   1.0000   1.0000   1.0000
     1.0000   1.0000   1.0000   1.0000   1.0000   1.0000   1.0000   1.0000
     1.0000   1.0000   1.0000   1.0000   1.0000   1.0000   1.0000   1.0000
     1.0000   1.0000   1.0000   1.0000   1.0000   1.0000   1.0000   1.0000
     1.0000   1.0000   1.0000   1.0000   1.0000   1.0000   1.0000   1.0000
     1.0000   1.0000   1.0000   1.0000   1.0000   1.0000   1.0000   1.0000
     1.0000   1.0000   1.0000   1.0000   1.0000   1.0000   1.0000   1.0000
     0.0000   0.0000   0.0000   0.0000   0.0000   0.0000   0.0000   0.0000
     0.0000   0.0000   0.0000   0.0000   0.0000   0.0000

          k = 0.2826 0.2826 0.4239 ( 63952 PWs)   bands (ev):

   -17.3264 -17.3110 -17.2917 -17.2917 -17.2738 -17.2738 -17.2651 -17.2603
   -17.1016 -17.1015 -17.0905 -17.0795  -4.7435  -4.7435  -4.6823  -4.6330
    -4.6254  -4.6207  -4.6207  -4.5786  -4.5442  -4.5442  -4.5188  -4.5092
    -4.2518  -4.2518  -4.2093  -4.1865  -4.1539  -4.1459  -4.1125  -4.1087
    -4.0875  -4.0875  -4.0521  -4.0521  -3.7732  -3.7655  -3.7200  -3.7200
    -3.6689  -3.6600  -3.6600  -3.6567  -3.6548  -3.6395  -3.6395  -3.6378
    -1.0708  -1.0312  -1.0103  -1.0102   1.7684   1.7827   1.9214   1.9214
     1.9524   1.9524   1.9555   1.9569   1.9932   1.9942   1.9943   2.0152
     3.8575   3.8860   3.8860   3.9077   3.9601   3.9814   4.0627   4.0627
     7.5635   7.5841   7.5841   7.7273   7.8747   7.8747   8.1588   8.2004
     8.2005   8.2193   8.3420   8.3898   8.4327   8.4330

     occupation numbers 
     1.0000   1.0000   1.0000   1.0000   1.0000   1.0000   1.0000   1.0000
     1.0000   1.0000   1.0000   1.0000   1.0000   1.0000   1.0000   1.0000
     1.0000   1.0000   1.0000   1.0000   1.0000   1.0000   1.0000   1.0000
     1.0000   1.0000   1.0000   1.0000   1.0000   1.0000   1.0000   1.0000
     1.0000   1.0000   1.0000   1.0000   1.0000   1.0000   1.0000   1.0000
     1.0000   1.0000   1.0000   1.0000   1.0000   1.0000   1.0000   1.0000
     1.0000   1.0000   1.0000   1.0000   1.0000   1.0000   1.0000   1.0000
     1.0000   1.0000   1.0000   1.0000   1.0000   1.0000   1.0000   1.0000
     1.0000   1.0000   1.0000   1.0000   1.0000   1.0000   1.0000   1.0000
     0.0000   0.0000   0.0000   0.0000   0.0000   0.0000   0.0000   0.0000
     0.0000   0.0000   0.0000   0.0000   0.0000   0.0000

          k = 0.2826 0.4239 0.4239 ( 64003 PWs)   bands (ev):

   -17.3157 -17.3033 -17.3033 -17.2954 -17.2740 -17.2700 -17.2700 -17.2650
   -17.0975 -17.0935 -17.0935 -17.0857  -4.7011  -4.6854  -4.6854  -4.6415
    -4.6120  -4.5962  -4.5962  -4.5751  -4.5597  -4.5597  -4.5597  -4.5527
    -4.2236  -4.2106  -4.2106  -4.1852  -4.1750  -4.1383  -4.1383  -4.1318
    -4.1289  -4.1028  -4.1028  -4.0831  -3.7443  -3.7308  -3.7308  -3.7171
    -3.6631  -3.6554  -3.6553  -3.6500  -3.6464  -3.6456  -3.6406  -3.6406
    -1.0309  -1.0090  -1.0090  -1.0015   1.8222   1.8297   1.8297   1.8646
     1.8953   1.9001   1.9058   1.9058   1.9551   1.9694   1.9823   1.9823
     3.9338   3.9504   3.9536   3.9536   4.0567   4.0849   4.0849   4.1101
     7.6910   7.6910   7.7111   7.7829   7.8453   8.0245   8.0245   8.1933
     8.2021   8.2244   8.2245   8.3280   8.3825   8.4315

     occupation numbers 
     1.0000   1.0000   1.0000   1.0000   1.0000   1.0000   1.0000   1.0000
     1.0000   1.0000   1.0000   1.0000   1.0000   1.0000   1.0000   1.0000
     1.0000   1.0000   1.0000   1.0000   1.0000   1.0000   1.0000   1.0000
     1.0000   1.0000   1.0000   1.0000   1.0000   1.0000   1.0000   1.0000
     1.0000   1.0000   1.0000   1.0000   1.0000   1.0000   1.0000   1.0000
     1.0000   1.0000   1.0000   1.0000   1.0000   1.0000   1.0000   1.0000
     1.0000   1.0000   1.0000   1.0000   1.0000   1.0000   1.0000   1.0000
     1.0000   1.0000   1.0000   1.0000   1.0000   1.0000   1.0000   1.0000
     1.0000   1.0000   1.0000   1.0000   1.0000   1.0000   1.0000   1.0000
     0.0000   0.0000   0.0000   0.0000   0.0000   0.0000   0.0000   0.0000
     0.0000   0.0000   0.0000   0.0000   0.0000   0.0000

          k = 0.4239 0.4239 0.4239 ( 63967 PWs)   bands (ev):

   -17.3077 -17.2996 -17.2996 -17.2996 -17.2741 -17.2741 -17.2741 -17.2700
   -17.0931 -17.0931 -17.0931 -17.0889  -4.6635  -4.6635  -4.6635  -4.6445
    -4.5882  -4.5882  -4.5882  -4.5671  -4.5671  -4.5671  -4.5663  -4.5663
    -4.1923  -4.1923  -4.1923  -4.1760  -4.1739  -4.1739  -4.1567  -4.1567
    -4.1567  -4.1496  -4.1496  -4.1496  -3.7231  -3.7155  -3.7155  -3.7155
    -3.6487  -3.6487  -3.6482  -3.6482  -3.6482  -3.6426  -3.6426  -3.6426
    -1.0013  -0.9907  -0.9906  -0.9906   1.8402   1.8496   1.8496   1.8497
     1.8763   1.8763   1.8877   1.8877   1.8877   1.8890   1.8890   1.8890
     4.0737   4.0737   4.0802   4.0802   4.0802   4.0928   4.0928   4.0928
     7.7257   7.7661   7.7661   7.7661   8.0683   8.0683   8.0683   8.2323
     8.2323   8.2323   8.2786   8.2786   8.4404   8.5188

     occupation numbers 
     1.0000   1.0000   1.0000   1.0000   1.0000   1.0000   1.0000   1.0000
     1.0000   1.0000   1.0000   1.0000   1.0000   1.0000   1.0000   1.0000
     1.0000   1.0000   1.0000   1.0000   1.0000   1.0000   1.0000   1.0000
     1.0000   1.0000   1.0000   1.0000   1.0000   1.0000   1.0000   1.0000
     1.0000   1.0000   1.0000   1.0000   1.0000   1.0000   1.0000   1.0000
     1.0000   1.0000   1.0000   1.0000   1.0000   1.0000   1.0000   1.0000
     1.0000   1.0000   1.0000   1.0000   1.0000   1.0000   1.0000   1.0000
     1.0000   1.0000   1.0000   1.0000   1.0000   1.0000   1.0000   1.0000
     1.0000   1.0000   1.0000   1.0000   1.0000   1.0000   1.0000   1.0000
     0.0000   0.0000   0.0000   0.0000   0.0000   0.0000   0.0000   0.0000
     0.0000   0.0000   0.0000   0.0000   0.0000   0.0000

     the Fermi energy is     5.6789 ev

!    total energy              =    -943.39080722 Ry
     estimated scf accuracy    <          9.9E-09 Ry
     smearing contrib. (-TS)   =       0.00000000 Ry
     internal energy E=F+TS    =    -943.39080722 Ry

     The total energy is F=E-TS. E is the sum of the following terms:
     one-electron contribution =     -36.72195903 Ry
     hartree contribution      =      68.87717089 Ry
     xc contribution           =    -390.81696515 Ry
     ewald contribution        =    -446.07973251 Ry
     one-center paw contrib.   =    -138.64932142 Ry
      -> PAW hartree energy AE =       5.67808040 Ry
      -> PAW hartree energy PS =      -5.66233968 Ry
      -> PAW xc energy AE      =    -146.31782279 Ry
      -> PAW xc energy PS      =       7.65276065 Ry
      -> total E_H with PAW    =      68.89291160 Ry
      -> total E_XC with PAW   =    -529.48202728 Ry

     convergence has been achieved in   9 iterations

     Forces acting on atoms (cartesian axes, Ry/au):

     atom    1 type  2   force =     0.00000000    0.00000000    0.00000000
     atom    2 type  2   force =     0.00000000    0.00000000    0.00000000
     atom    3 type  2   force =     0.00000000    0.00000000    0.00000000
     atom    4 type  2   force =     0.00000000    0.00000000    0.00000000
     atom    5 type  3   force =     0.00000000    0.00000000    0.00000000
     atom    6 type  3   force =     0.00000000    0.00000000    0.00000000
     atom    7 type  3   force =    -0.00000274   -0.00000274   -0.00000274
     atom    8 type  3   force =     0.00000274   -0.00000274   -0.00000274
     atom    9 type  3   force =    -0.00000274    0.00000274   -0.00000274
     atom   10 type  3   force =     0.00000274    0.00000274   -0.00000274
     atom   11 type  3   force =     0.00000000    0.00000000    0.00000000
     atom   12 type  3   force =     0.00000000    0.00000000    0.00000000
     atom   13 type  3   force =    -0.00000274   -0.00000274    0.00000274
     atom   14 type  3   force =     0.00000274   -0.00000274    0.00000274
     atom   15 type  3   force =    -0.00000274    0.00000274    0.00000274
     atom   16 type  3   force =     0.00000274    0.00000274    0.00000274
     atom   17 type  1   force =     0.00209537    0.00000000   -0.00000000
     atom   18 type  1   force =    -0.00209537    0.00000000   -0.00000000
     atom   19 type  1   force =     0.00000000   -0.00209604    0.00000000
     atom   20 type  1   force =     0.00000000    0.00209537    0.00000000
     atom   21 type  1   force =    -0.00209604   -0.00000000   -0.00000000
     atom   22 type  1   force =     0.00209604    0.00000000   -0.00000000
     atom   23 type  1   force =     0.00000000   -0.00209537    0.00000000
     atom   24 type  1   force =     0.00000000    0.00209604    0.00000000
     atom   25 type  1   force =    -0.00000000    0.00000000   -0.00209604
     atom   26 type  1   force =     0.00000000    0.00000000   -0.00209604
     atom   27 type  1   force =     0.00000000    0.00000000    0.00209537
     atom   28 type  1   force =     0.00000000    0.00000000    0.00209561
     atom   29 type  1   force =    -0.00209604    0.00000000    0.00000000
     atom   30 type  1   force =     0.00209604    0.00000000    0.00000000
     atom   31 type  1   force =     0.00000000   -0.00209604    0.00000000
     atom   32 type  1   force =     0.00000000    0.00209561    0.00000000
     atom   33 type  1   force =     0.00209561    0.00000000    0.00000000
     atom   34 type  1   force =    -0.00209561    0.00000000    0.00000000
     atom   35 type  1   force =     0.00000000   -0.00209561    0.00000000
     atom   36 type  1   force =     0.00000000    0.00209604    0.00000000
     atom   37 type  1   force =     0.00000000    0.00000000   -0.00209537
     atom   38 type  1   force =     0.00000000    0.00000000   -0.00209561
     atom   39 type  1   force =     0.00000000    0.00000000    0.00209604
     atom   40 type  1   force =     0.00000000    0.00000000    0.00209604
     The non-local contrib.  to forces
     atom    1 type  2   force =     0.00000000    0.00000000    0.00000000
     atom    2 type  2   force =     0.00000000    0.00000000    0.00000000
     atom    3 type  2   force =     0.00000000    0.00000000    0.00000000
     atom    4 type  2   force =     0.00000000    0.00000000    0.00000000
     atom    5 type  3   force =     0.00000000    0.00000000    0.00000000
     atom    6 type  3   force =     0.00000000    0.00000000    0.00000000
     atom    7 type  3   force =     0.00000309    0.00000309    0.00000309
     atom    8 type  3   force =    -0.00000309    0.00000309    0.00000309
     atom    9 type  3   force =     0.00000309   -0.00000309    0.00000309
     atom   10 type  3   force =    -0.00000309   -0.00000309    0.00000309
     atom   11 type  3   force =     0.00000000    0.00000000    0.00000000
     atom   12 type  3   force =     0.00000000    0.00000000    0.00000000
     atom   13 type  3   force =     0.00000309    0.00000309   -0.00000309
     atom   14 type  3   force =    -0.00000309    0.00000309   -0.00000309
     atom   15 type  3   force =     0.00000309   -0.00000309   -0.00000309
     atom   16 type  3   force =    -0.00000309   -0.00000309   -0.00000309
     atom   17 type  1   force =     0.01229172    0.00000000    0.00000000
     atom   18 type  1   force =    -0.01229172    0.00000000    0.00000000
     atom   19 type  1   force =     0.00000000   -0.01229172    0.00000000
     atom   20 type  1   force =     0.00000000    0.01229172    0.00000000
     atom   21 type  1   force =    -0.01229172    0.00000000    0.00000000
     atom   22 type  1   force =     0.01229172   -0.00000000    0.00000000
     atom   23 type  1   force =    -0.00000000   -0.01229172   -0.00000000
     atom   24 type  1   force =    -0.00000000    0.01229172    0.00000000
     atom   25 type  1   force =    -0.00000000    0.00000000   -0.01229172
     atom   26 type  1   force =     0.00000000    0.00000000   -0.01229172
     atom   27 type  1   force =    -0.00000000    0.00000000    0.01229172
     atom   28 type  1   force =     0.00000000   -0.00000000    0.01229173
     atom   29 type  1   force =    -0.01229172   -0.00000000   -0.00000000
     atom   30 type  1   force =     0.01229172    0.00000000    0.00000000
     atom   31 type  1   force =    -0.00000000   -0.01229172   -0.00000000
     atom   32 type  1   force =     0.00000000    0.01229173    0.00000000
     atom   33 type  1   force =     0.01229173   -0.00000000    0.00000000
     atom   34 type  1   force =    -0.01229173    0.00000000    0.00000000
[...]
     atom   28 type  1   force =    -0.00000000   -0.00000000   -0.14281555
     atom   29 type  1   force =     0.14282193    0.00000000    0.00000000
     atom   30 type  1   force =    -0.14282193   -0.00000000   -0.00000000
     atom   31 type  1   force =     0.00000000    0.14282193    0.00000000
     atom   32 type  1   force =     0.00000000   -0.14281555   -0.00000000
     atom   33 type  1   force =    -0.14281555    0.00000000   -0.00000000
     atom   34 type  1   force =     0.14281555   -0.00000000   -0.00000000
     atom   35 type  1   force =    -0.00000000    0.14281555   -0.00000000
     atom   36 type  1   force =     0.00000000   -0.14282193   -0.00000000
     atom   37 type  1   force =     0.00000000    0.00000000    0.14281313
     atom   38 type  1   force =    -0.00000000   -0.00000000    0.14281555
     atom   39 type  1   force =    -0.00000000    0.00000000   -0.14282193
     atom   40 type  1   force =     0.00000000   -0.00000000   -0.14282193
     The local contribution  to forces
     atom    1 type  2   force =     0.00000000    0.00000000    0.00000000
     atom    2 type  2   force =    -0.00000000    0.00000000    0.00000000
     atom    3 type  2   force =    -0.00000000   -0.00000000   -0.00000000
     atom    4 type  2   force =    -0.00000000   -0.00000000   -0.00000000
     atom    5 type  3   force =     0.00000000    0.00000000    0.00000000
     atom    6 type  3   force =    -0.00000000   -0.00000000    0.00000000
     atom    7 type  3   force =    -0.00003652   -0.00003652   -0.00003652
     atom    8 type  3   force =     0.00003652   -0.00003652   -0.00003652
     atom    9 type  3   force =    -0.00003652    0.00003652   -0.00003652
     atom   10 type  3   force =     0.00003652    0.00003652   -0.00003652
     atom   11 type  3   force =    -0.00000000    0.00000000   -0.00000000
     atom   12 type  3   force =     0.00000000   -0.00000000   -0.00000000
     atom   13 type  3   force =    -0.00003652   -0.00003652    0.00003652
     atom   14 type  3   force =     0.00003652   -0.00003652    0.00003652
     atom   15 type  3   force =    -0.00003652    0.00003652    0.00003652
     atom   16 type  3   force =     0.00003652    0.00003652    0.00003652
     atom   17 type  1   force =     0.13021378    0.00000000    0.00000000
     atom   18 type  1   force =    -0.13021378   -0.00000000    0.00000000
     atom   19 type  1   force =    -0.00000000   -0.13022293    0.00000000
     atom   20 type  1   force =     0.00000000    0.13021378    0.00000000
     atom   21 type  1   force =    -0.13022293   -0.00000000    0.00000000
     atom   22 type  1   force =     0.13022293   -0.00000000    0.00000000
     atom   23 type  1   force =    -0.00000000   -0.13021378    0.00000000
     atom   24 type  1   force =    -0.00000000    0.13022293    0.00000000
     atom   25 type  1   force =    -0.00000000    0.00000000   -0.13022293
     atom   26 type  1   force =     0.00000000   -0.00000000   -0.13022293
     atom   27 type  1   force =     0.00000000   -0.00000000    0.13021378
     atom   28 type  1   force =    -0.00000000   -0.00000000    0.13021642
     atom   29 type  1   force =    -0.13022293    0.00000000   -0.00000000
     atom   30 type  1   force =     0.13022293   -0.00000000   -0.00000000
     atom   31 type  1   force =     0.00000000   -0.13022293   -0.00000000
     atom   32 type  1   force =    -0.00000000    0.13021642   -0.00000000
     atom   33 type  1   force =     0.13021642   -0.00000000   -0.00000000
     atom   34 type  1   force =    -0.13021642   -0.00000000   -0.00000000
     atom   35 type  1   force =    -0.00000000   -0.13021642   -0.00000000
     atom   36 type  1   force =    -0.00000000    0.13022293   -0.00000000
     atom   37 type  1   force =     0.00000000    0.00000000   -0.13021378
     atom   38 type  1   force =    -0.00000000   -0.00000000   -0.13021642
     atom   39 type  1   force =    -0.00000000   -0.00000000    0.13022293
     atom   40 type  1   force =     0.00000000   -0.00000000    0.13022293
     The core correction contribution to forces
     atom    1 type  2   force =     0.00000000   -0.00000000   -0.00000000
     atom    2 type  2   force =    -0.00000000    0.00000000   -0.00000000
     atom    3 type  2   force =    -0.00000000   -0.00000000    0.00000000
     atom    4 type  2   force =     0.00000000    0.00000000    0.00000000
     atom    5 type  3   force =     0.00000000   -0.00000000    0.00000000
     atom    6 type  3   force =     0.00000000    0.00000000    0.00000000
     atom    7 type  3   force =    -0.00000004   -0.00000004   -0.00000004
     atom    8 type  3   force =     0.00000004   -0.00000004   -0.00000004
     atom    9 type  3   force =    -0.00000004    0.00000004   -0.00000004
     atom   10 type  3   force =     0.00000004    0.00000004   -0.00000004
     atom   11 type  3   force =     0.00000000    0.00000000    0.00000000
     atom   12 type  3   force =     0.00000000    0.00000000    0.00000000
     atom   13 type  3   force =    -0.00000004   -0.00000004    0.00000004
     atom   14 type  3   force =     0.00000004   -0.00000004    0.00000004
     atom   15 type  3   force =    -0.00000004    0.00000004    0.00000004
     atom   16 type  3   force =     0.00000004    0.00000004    0.00000004
     atom   17 type  1   force =     0.00000000    0.00000000    0.00000000
     atom   18 type  1   force =     0.00000000    0.00000000    0.00000000
     atom   19 type  1   force =     0.00000000    0.00000000    0.00000000
     atom   20 type  1   force =     0.00000000    0.00000000    0.00000000
     atom   21 type  1   force =     0.00000000    0.00000000    0.00000000
     atom   22 type  1   force =     0.00000000    0.00000000    0.00000000
     atom   23 type  1   force =     0.00000000    0.00000000    0.00000000
     atom   24 type  1   force =     0.00000000    0.00000000    0.00000000
     atom   25 type  1   force =     0.00000000    0.00000000    0.00000000
     atom   26 type  1   force =     0.00000000    0.00000000    0.00000000
     atom   27 type  1   force =     0.00000000    0.00000000    0.00000000
     atom   28 type  1   force =     0.00000000    0.00000000    0.00000000
     atom   29 type  1   force =     0.00000000    0.00000000    0.00000000
     atom   30 type  1   force =     0.00000000    0.00000000    0.00000000
     atom   31 type  1   force =     0.00000000    0.00000000    0.00000000
     atom   32 type  1   force =     0.00000000    0.00000000    0.00000000
     atom   33 type  1   force =     0.00000000    0.00000000    0.00000000
     atom   34 type  1   force =     0.00000000    0.00000000    0.00000000
     atom   35 type  1   force =     0.00000000    0.00000000    0.00000000
     atom   36 type  1   force =     0.00000000    0.00000000    0.00000000
     atom   37 type  1   force =     0.00000000    0.00000000    0.00000000
     atom   38 type  1   force =     0.00000000    0.00000000    0.00000000
     atom   39 type  1   force =     0.00000000    0.00000000    0.00000000
     atom   40 type  1   force =     0.00000000    0.00000000    0.00000000
     The Hubbard contrib.    to forces
     atom    1 type  2   force =     0.00000000    0.00000000    0.00000000
     atom    2 type  2   force =     0.00000000    0.00000000    0.00000000
     atom    3 type  2   force =     0.00000000    0.00000000    0.00000000
     atom    4 type  2   force =     0.00000000    0.00000000    0.00000000
     atom    5 type  3   force =     0.00000000    0.00000000    0.00000000
     atom    6 type  3   force =     0.00000000    0.00000000    0.00000000
     atom    7 type  3   force =     0.00000000    0.00000000    0.00000000
     atom    8 type  3   force =     0.00000000    0.00000000    0.00000000
     atom    9 type  3   force =     0.00000000    0.00000000    0.00000000
     atom   10 type  3   force =     0.00000000    0.00000000    0.00000000
     atom   11 type  3   force =     0.00000000    0.00000000    0.00000000
     atom   12 type  3   force =     0.00000000    0.00000000    0.00000000
     atom   13 type  3   force =     0.00000000    0.00000000    0.00000000
     atom   14 type  3   force =     0.00000000    0.00000000    0.00000000
     atom   15 type  3   force =     0.00000000    0.00000000    0.00000000
     atom   16 type  3   force =     0.00000000    0.00000000    0.00000000
     atom   17 type  1   force =     0.00000000    0.00000000    0.00000000
     atom   18 type  1   force =     0.00000000    0.00000000    0.00000000
     atom   19 type  1   force =     0.00000000    0.00000000    0.00000000
     atom   20 type  1   force =     0.00000000    0.00000000    0.00000000
     atom   21 type  1   force =     0.00000000    0.00000000    0.00000000
     atom   22 type  1   force =     0.00000000    0.00000000    0.00000000
     atom   23 type  1   force =     0.00000000    0.00000000    0.00000000
     atom   24 type  1   force =     0.00000000    0.00000000    0.00000000
     atom   25 type  1   force =     0.00000000    0.00000000    0.00000000
     atom   26 type  1   force =     0.00000000    0.00000000    0.00000000
     atom   27 type  1   force =     0.00000000    0.00000000    0.00000000
     atom   28 type  1   force =     0.00000000    0.00000000    0.00000000
     atom   29 type  1   force =     0.00000000    0.00000000    0.00000000
     atom   30 type  1   force =     0.00000000    0.00000000    0.00000000
     atom   31 type  1   force =     0.00000000    0.00000000    0.00000000
     atom   32 type  1   force =     0.00000000    0.00000000    0.00000000
     atom   33 type  1   force =     0.00000000    0.00000000    0.00000000
     atom   34 type  1   force =     0.00000000    0.00000000    0.00000000
     atom   35 type  1   force =     0.00000000    0.00000000    0.00000000
     atom   36 type  1   force =     0.00000000    0.00000000    0.00000000
     atom   37 type  1   force =     0.00000000    0.00000000    0.00000000
     atom   38 type  1   force =     0.00000000    0.00000000    0.00000000
     atom   39 type  1   force =     0.00000000    0.00000000    0.00000000
     atom   40 type  1   force =     0.00000000    0.00000000    0.00000000
     The SCF correction term to forces
     atom    1 type  2   force =    -0.00000000   -0.00000000   -0.00000000
     atom    2 type  2   force =     0.00000000   -0.00000000   -0.00000000
     atom    3 type  2   force =    -0.00000000    0.00000000    0.00000000
     atom    4 type  2   force =    -0.00000000    0.00000000    0.00000000
     atom    5 type  3   force =     0.00000000   -0.00000000    0.00000000
     atom    6 type  3   force =     0.00000000   -0.00000000    0.00000000
     atom    7 type  3   force =     0.00000105    0.00000105    0.00000105
     atom    8 type  3   force =    -0.00000105    0.00000105    0.00000105
     atom    9 type  3   force =     0.00000105   -0.00000105    0.00000105
     atom   10 type  3   force =    -0.00000105   -0.00000105    0.00000105
     atom   11 type  3   force =    -0.00000000   -0.00000000   -0.00000000
     atom   12 type  3   force =     0.00000000    0.00000000   -0.00000000
     atom   13 type  3   force =     0.00000105    0.00000105   -0.00000105
     atom   14 type  3   force =    -0.00000105    0.00000105   -0.00000105
     atom   15 type  3   force =     0.00000105   -0.00000105   -0.00000105
     atom   16 type  3   force =    -0.00000105   -0.00000105   -0.00000105
     atom   17 type  1   force =    -0.00000038    0.00000000    0.00000000
     atom   18 type  1   force =     0.00000038    0.00000000    0.00000000
     atom   19 type  1   force =     0.00000000    0.00000073   -0.00000000
     atom   20 type  1   force =    -0.00000000   -0.00000038    0.00000000
     atom   21 type  1   force =     0.00000073    0.00000000   -0.00000000
     atom   22 type  1   force =    -0.00000073    0.00000000    0.00000000
     atom   23 type  1   force =     0.00000000    0.00000038   -0.00000000
     atom   24 type  1   force =    -0.00000000   -0.00000073   -0.00000000
     atom   25 type  1   force =    -0.00000000   -0.00000000    0.00000073
     atom   26 type  1   force =    -0.00000000   -0.00000000    0.00000073
     atom   27 type  1   force =     0.00000000    0.00000000   -0.00000038
     atom   28 type  1   force =     0.00000000    0.00000000   -0.00000061
     atom   29 type  1   force =     0.00000073   -0.00000000   -0.00000000
     atom   30 type  1   force =    -0.00000073   -0.00000000    0.00000000
     atom   31 type  1   force =     0.00000000    0.00000073   -0.00000000
     atom   32 type  1   force =    -0.00000000   -0.00000061   -0.00000000
     atom   33 type  1   force =    -0.00000061    0.00000000   -0.00000000
     atom   34 type  1   force =     0.00000061   -0.00000000   -0.00000000
     atom   35 type  1   force =     0.00000000    0.00000061   -0.00000000
     atom   36 type  1   force =    -0.00000000   -0.00000073   -0.00000000
     atom   37 type  1   force =    -0.00000000   -0.00000000    0.00000038
     atom   38 type  1   force =    -0.00000000   -0.00000000    0.00000061
     atom   39 type  1   force =     0.00000000    0.00000000   -0.00000073
     atom   40 type  1   force =    -0.00000000    0.00000000   -0.00000073

     Total force =     0.001168     Total SCF correction =     0.000006


     Computing stress (Cartesian axis) and pressure

          total   stress  (Ry/bohr**3)                   (kbar)     P=        0.23
   0.00000158   0.00000000   0.00000000            0.23        0.00        0.00
   0.00000000   0.00000158   0.00000000            0.00        0.23        0.00
   0.00000000   0.00000000   0.00000158            0.00        0.00        0.23

     kinetic stress (kbar)   3121.20      0.00      0.00
                                0.00   3121.20      0.00
                                0.00      0.00   3121.20

     local   stress (kbar)  -3119.74     -0.00      0.00
                               -0.00  -3119.74      0.00
                                0.00      0.00  -3119.74

     nonloc. stress (kbar)   4766.43      0.00      0.00
                                0.00   4766.43      0.00
                                0.00      0.00   4766.43

     hartree stress (kbar)    637.09      0.00      0.00
                                0.00    637.09     -0.00
                                0.00     -0.00    637.09

     exc-cor stress (kbar)   6593.81     -0.00     -0.00
                               -0.00   6593.81      0.00
                               -0.00      0.00   6593.81

     corecor stress (kbar)  -7959.57      0.00      0.00
                                0.00  -7959.57     -0.00
                                0.00     -0.00  -7959.57

     ewald   stress (kbar)  -4038.99     -0.00      0.00
                               -0.00  -4038.99      0.00
                                0.00      0.00  -4038.99

     hubbard stress (kbar)      0.00      0.00      0.00
                                0.00      0.00      0.00
                                0.00      0.00      0.00

     DFT-D   stress (kbar)      0.00      0.00      0.00
                                0.00      0.00      0.00
                                0.00      0.00      0.00

     XDM     stress (kbar)      0.00      0.00      0.00
                                0.00      0.00      0.00
                                0.00      0.00      0.00

     dft-nl  stress (kbar)      0.00      0.00      0.00
                                0.00      0.00      0.00
                                0.00      0.00      0.00

     TS-vdW  stress (kbar)      0.00      0.00      0.00
                                0.00      0.00      0.00
                                0.00      0.00      0.00



     Writing output data file ./Cs3AlH6_optgeo.save/

     init_run     :    294.28s CPU    296.46s WALL (       2 calls)
     electrons    :  23895.72s CPU  24039.72s WALL (       8 calls)
     update_pot   :     65.96s CPU     65.99s WALL (       6 calls)
     forces       :    507.14s CPU    509.49s WALL (       8 calls)
     stress       :    683.08s CPU    687.38s WALL (       8 calls)

     Called by init_run:
     wfcinit      :    274.73s CPU    276.41s WALL (       2 calls)
     wfcinit:atom :      0.49s CPU      0.64s WALL (      40 calls)
     wfcinit:wfcr :    270.64s CPU    272.06s WALL (      40 calls)
     potinit      :      7.00s CPU      7.04s WALL (       2 calls)
     hinit0       :      9.68s CPU      9.71s WALL (       2 calls)

     Called by electrons:
     c_bands      :  21371.26s CPU  21449.73s WALL (     122 calls)
     sum_band     :   2280.45s CPU   2321.97s WALL (     122 calls)
     v_of_rho     :     22.17s CPU     22.74s WALL (     128 calls)
     v_h          :      1.69s CPU      1.73s WALL (     128 calls)
     v_xc         :     23.03s CPU     23.60s WALL (     144 calls)
     newd         :    163.98s CPU    188.72s WALL (     128 calls)
     PAW_pot      :     65.29s CPU     65.35s WALL (     134 calls)
     mix_rho      :      6.49s CPU      6.66s WALL (     122 calls)

     Called by c_bands:
     init_us_2    :    109.49s CPU    109.74s WALL (    5360 calls)
     cegterg      :  21032.14s CPU  21110.18s WALL (    2444 calls)

     Called by sum_band:
     sum_band:wei :      0.02s CPU      0.02s WALL (     122 calls)
     sum_band:loo :   2096.78s CPU   2113.25s WALL (     122 calls)
     sum_band:buf :     14.53s CPU     14.57s WALL (    2440 calls)
     sum_band:ini :     48.48s CPU     48.51s WALL (    2440 calls)
     sum_band:cal :   1711.35s CPU   1712.46s WALL (    2560 calls)
     sum_band:bec :      1.89s CPU      1.90s WALL (    2560 calls)
     addusdens    :    166.38s CPU    190.92s WALL (     122 calls)
     addusd:skk   :      1.34s CPU      1.51s WALL (     366 calls)
     addusd:dgemm :    123.46s CPU    147.58s WALL (     366 calls)
     addusd:qvan2 :     37.30s CPU     37.32s WALL (     366 calls)

     Called by *egterg:
     cdiaghg      :    152.94s CPU    153.50s WALL (   10310 calls)
     cegterg:over :   2042.82s CPU   2044.00s WALL (    8030 calls)
     cegterg:upda :   1072.66s CPU   1073.83s WALL (    8030 calls)
     cegterg:last :   2830.54s CPU   2831.98s WALL (    5125 calls)
     cdiaghg:chol :      8.79s CPU      8.81s WALL (   10310 calls)
     cdiaghg:inve :      0.83s CPU      0.84s WALL (   10310 calls)
     cdiaghg:para :     49.03s CPU     49.26s WALL (   20620 calls)
     h_psi        :  10251.21s CPU  10322.27s WALL (   10514 calls)
     s_psi        :   4243.20s CPU   4244.89s WALL (   10514 calls)
     g_psi        :     18.06s CPU     18.09s WALL (    8030 calls)

     Called by h_psi:
     h_psi:calbec :   4258.46s CPU   4262.48s WALL (   10514 calls)
     vloc_psi     :   1711.85s CPU   1776.28s WALL (   10514 calls)
     add_vuspsi   :   4260.71s CPU   4261.95s WALL (   10514 calls)

     General routines
     calbec       :   6520.75s CPU   6526.11s WALL (   13874 calls)
     fft          :     21.68s CPU     22.54s WALL (    1856 calls)
     ffts         :      1.10s CPU      1.14s WALL (     250 calls)
     fftw         :   1786.71s CPU   1854.87s WALL ( 1297284 calls)
     interpolate  :      2.27s CPU      2.34s WALL (     128 calls)

     Parallel routines
     fft_scatt_xy :    262.27s CPU    272.25s WALL ( 1299390 calls)
     fft_scatt_yz :    733.65s CPU    762.92s WALL ( 1299390 calls)

     PAW routines
     PAW_pot      :     65.29s CPU     65.35s WALL (     134 calls)
     PAW_symme    :      0.50s CPU      0.51s WALL (     256 calls)

     PWSCF        :      7h 5m CPU      7h 8m WALL


   This run was terminated on:  15:23: 7  28Nov2023            

=------------------------------------------------------------------------------=
   JOB DONE.
=------------------------------------------------------------------------------=
