
     Program PWSCF v.7.1 starts on 30Nov2023 at 11:25:37 

     This program is part of the open-source Quantum ESPRESSO suite
     for quantum simulation of materials; please cite
         "P. Giannozzi et al., J. Phys.:Condens. Matter 21 395502 (2009);
         "P. Giannozzi et al., J. Phys.:Condens. Matter 29 465901 (2017);
         "P. Giannozzi et al., J. Chem. Phys. 152 154105 (2020);
          URL http://www.quantum-espresso.org", 
     in publications or presentations arising from this work. More details at
     http://www.quantum-espresso.org/quote

     Parallel version (MPI & OpenMP), running on      28 processor cores
     Number of MPI processes:                28
     Threads/MPI process:                     1

     MPI processes distributed on     1 nodes
     122001 MiB available memory on the printing compute node when the environment starts
 
     Reading input from Cs5Al3H14.in

     Current dimensions of program PWSCF are:
     Max number of different atomic species (ntypx) = 10
     Max number of k-points (npk) =  40000
     Max angular momentum in pseudopotentials (lmaxx) =  4
     file Al.pbe-n-kjpaw_psl.1.0.0.UPF: wavefunction(s)  3S 3P renormalized

     IMPORTANT: XC functional enforced from input :
     Exchange-correlation= PBE
                           (   1   4   3   4   0   0   0)
     Any further DFT definition will be discarded
     Please, verify this is what you really want

     Message from routine setup:
     using ibrav=0 with symmetry is DISCOURAGED, use correct ibrav instead
 
     R & G space division:  proc/nbgrp/npool/nimage =      28
     Subspace diagonalization in iterative solution of the eigenvalue problem:
     a serial algorithm will be used

 
     Parallelization info
     --------------------
     sticks:   dense  smooth     PW     G-vecs:    dense   smooth      PW
     Min         180     144     39                14792    10590    1473
     Max         181     146     40                14801    10595    1479
     Sum        5057    4049   1093               414315   296573   41349
 
     Using Slab Decomposition
 


     bravais-lattice index     =            0
     lattice parameter (alat)  =      12.6114  a.u.
     unit-cell volume          =    3067.3055 (a.u.)^3
     number of atoms/cell      =           44
     number of atomic types    =            3
     number of electrons       =       136.00
     number of Kohn-Sham states=           82
     kinetic-energy cutoff     =      80.0000  Ry
     charge density cutoff     =     400.0000  Ry
     scf convergence threshold =      1.0E-08
     mixing beta               =       0.7000
     number of iterations used =            8  plain     mixing
     energy convergence thresh.=      1.0E-04
     force convergence thresh. =      1.0E-03
     press convergence thresh. =      5.0E-01
     Exchange-correlation= PBE
                           (   1   4   3   4   0   0   0)
     nstep                     =           50


     celldm(1)=  12.611352  celldm(2)=   0.000000  celldm(3)=   0.000000
     celldm(4)=   0.000000  celldm(5)=   0.000000  celldm(6)=   0.000000

     crystal axes: (cart. coord. in units of alat)
               a(1) = (   1.000000   0.000000   0.000000 )  
               a(2) = (   0.000000   1.000000   0.000000 )  
               a(3) = (   0.000000   0.000000   1.529228 )  

     reciprocal axes: (cart. coord. in units 2 pi/alat)
               b(1) = (  1.000000  0.000000  0.000000 )  
               b(2) = (  0.000000  1.000000  0.000000 )  
               b(3) = (  0.000000  0.000000  0.653925 )  


     PseudoPot. # 1 for H  read from file:
     /scratch/antwerpen/209/vsc20922/pseudos/H.pbe-rrkjus_psl.1.0.0.UPF
     MD5 check sum: f52b6d4d1c606e5624b1dc7b2218f220
     Pseudo is Ultrasoft, Zval =  1.0
     Generated using "atomic" code by A. Dal Corso  v.5.1
     Using radial grid of  929 points,  2 beta functions with: 
                l(1) =   0
                l(2) =   0
     Q(r) pseudized with 0 coefficients 


     PseudoPot. # 2 for Al read from file:
     /scratch/antwerpen/209/vsc20922/pseudos/Al.pbe-n-kjpaw_psl.1.0.0.UPF
     MD5 check sum: cfc449ca30b5f3223ec38ddd88ac046d
     Pseudo is Projector augmented-wave + core cor, Zval =  3.0
     Generated using "atomic" code by A. Dal Corso  v.5.1
     Shape of augmentation charge: PSQ
     Using radial grid of 1135 points,  6 beta functions with: 
                l(1) =   0
                l(2) =   0
                l(3) =   1
                l(4) =   1
                l(5) =   2
                l(6) =   2
     Q(r) pseudized with 0 coefficients 


     PseudoPot. # 3 for Cs read from file:
     /scratch/antwerpen/209/vsc20922/pseudos/Cs_pbe_v1.uspp.F.UPF
     MD5 check sum: 3476d69cb178dfad3ffaa59df4e07ca4
     Pseudo is Ultrasoft + core correction, Zval =  9.0
     Generated by new atomic code, or converted to UPF format
     Using radial grid of  905 points,  6 beta functions with: 
                l(1) =   0
                l(2) =   0
                l(3) =   1
                l(4) =   1
                l(5) =   2
                l(6) =   2
     Q(r) pseudized with  6 coefficients,  rinner =    1.500   1.500   1.500
                                                       1.500   1.500

     atomic species   valence    mass     pseudopotential
        H              1.00     1.00750     H ( 1.00)
        Al             3.00    26.98100     Al( 1.00)
        Cs             9.00   132.90500     Cs( 1.00)

     16 Sym. Ops., with inversion, found ( 8 have fractional translation)


                                    s                        frac. trans.

      isym =  1     identity                                     

 cryst.   s( 1) = (     1          0          0      )
                  (     0          1          0      )
                  (     0          0          1      )

 cart.    s( 1) = (  1.0000000  0.0000000  0.0000000 )
                  (  0.0000000  1.0000000  0.0000000 )
                  (  0.0000000  0.0000000  1.0000000 )


      isym =  2     180 deg rotation - cart. axis [0,0,1]        

 cryst.   s( 2) = (    -1          0          0      )
                  (     0         -1          0      )
                  (     0          0          1      )

 cart.    s( 2) = ( -1.0000000  0.0000000  0.0000000 )
                  (  0.0000000 -1.0000000  0.0000000 )
                  (  0.0000000  0.0000000  1.0000000 )


      isym =  3     180 deg rotation - cart. axis [0,1,0]        

 cryst.   s( 3) = (    -1          0          0      )    f =(  0.5000000 )
                  (     0          1          0      )       (  0.5000000 )
                  (     0          0         -1      )       (  0.5000000 )

 cart.    s( 3) = ( -1.0000000  0.0000000  0.0000000 )    f =(  0.5000000 )
                  (  0.0000000  1.0000000  0.0000000 )       (  0.5000000 )
                  (  0.0000000  0.0000000 -1.0000000 )       (  0.7646138 )


      isym =  4     180 deg rotation - cart. axis [1,0,0]        

 cryst.   s( 4) = (     1          0          0      )    f =( -0.5000000 )
                  (     0         -1          0      )       (  0.5000000 )
                  (     0          0         -1      )       (  0.5000000 )

 cart.    s( 4) = (  1.0000000  0.0000000  0.0000000 )    f =( -0.5000000 )
                  (  0.0000000 -1.0000000  0.0000000 )       (  0.5000000 )
                  (  0.0000000  0.0000000 -1.0000000 )       (  0.7646138 )


      isym =  5     180 deg rotation - cart. axis [1,1,0]        

 cryst.   s( 5) = (     0          1          0      )    f =( -0.5000000 )
                  (     1          0          0      )       (  0.5000000 )
                  (     0          0         -1      )       (  0.5000000 )

 cart.    s( 5) = (  0.0000000  1.0000000  0.0000000 )    f =( -0.5000000 )
                  (  1.0000000  0.0000000  0.0000000 )       (  0.5000000 )
                  (  0.0000000  0.0000000 -1.0000000 )       (  0.7646138 )


      isym =  6     180 deg rotation - cart. axis [1,-1,0]       

 cryst.   s( 6) = (     0         -1          0      )    f =(  0.5000000 )
                  (    -1          0          0      )       (  0.5000000 )
                  (     0          0         -1      )       (  0.5000000 )

 cart.    s( 6) = (  0.0000000 -1.0000000  0.0000000 )    f =(  0.5000000 )
                  ( -1.0000000  0.0000000  0.0000000 )       (  0.5000000 )
                  (  0.0000000  0.0000000 -1.0000000 )       (  0.7646138 )


      isym =  7      90 deg rotation - cart. axis [0,0,-1]       

 cryst.   s( 7) = (     0         -1          0      )
                  (     1          0          0      )
                  (     0          0          1      )

 cart.    s( 7) = (  0.0000000  1.0000000  0.0000000 )
                  ( -1.0000000  0.0000000  0.0000000 )
                  (  0.0000000  0.0000000  1.0000000 )


      isym =  8      90 deg rotation - cart. axis [0,0,1]        

 cryst.   s( 8) = (     0          1          0      )
                  (    -1          0          0      )
                  (     0          0          1      )

 cart.    s( 8) = (  0.0000000 -1.0000000  0.0000000 )
                  (  1.0000000  0.0000000  0.0000000 )
                  (  0.0000000  0.0000000  1.0000000 )


      isym =  9     inversion                                    

 cryst.   s( 9) = (    -1          0          0      )
                  (     0         -1          0      )
                  (     0          0         -1      )

 cart.    s( 9) = ( -1.0000000  0.0000000  0.0000000 )
                  (  0.0000000 -1.0000000  0.0000000 )
                  (  0.0000000  0.0000000 -1.0000000 )


      isym = 10     inv. 180 deg rotation - cart. axis [0,0,1]   

 cryst.   s(10) = (     1          0          0      )
                  (     0          1          0      )
                  (     0          0         -1      )

 cart.    s(10) = (  1.0000000  0.0000000  0.0000000 )
                  (  0.0000000  1.0000000  0.0000000 )
                  (  0.0000000  0.0000000 -1.0000000 )


      isym = 11     inv. 180 deg rotation - cart. axis [0,1,0]   

 cryst.   s(11) = (     1          0          0      )    f =( -0.5000000 )
                  (     0         -1          0      )       (  0.5000000 )
                  (     0          0          1      )       ( -0.5000000 )

 cart.    s(11) = (  1.0000000  0.0000000  0.0000000 )    f =( -0.5000000 )
                  (  0.0000000 -1.0000000  0.0000000 )       (  0.5000000 )
                  (  0.0000000  0.0000000  1.0000000 )       ( -0.7646138 )


      isym = 12     inv. 180 deg rotation - cart. axis [1,0,0]   

 cryst.   s(12) = (    -1          0          0      )    f =(  0.5000000 )
                  (     0          1          0      )       (  0.5000000 )
                  (     0          0          1      )       ( -0.5000000 )

 cart.    s(12) = ( -1.0000000  0.0000000  0.0000000 )    f =(  0.5000000 )
                  (  0.0000000  1.0000000  0.0000000 )       (  0.5000000 )
                  (  0.0000000  0.0000000  1.0000000 )       ( -0.7646138 )


      isym = 13     inv. 180 deg rotation - cart. axis [1,1,0]   

 cryst.   s(13) = (     0         -1          0      )    f =(  0.5000000 )
                  (    -1          0          0      )       (  0.5000000 )
                  (     0          0          1      )       ( -0.5000000 )

 cart.    s(13) = (  0.0000000 -1.0000000  0.0000000 )    f =(  0.5000000 )
                  ( -1.0000000  0.0000000  0.0000000 )       (  0.5000000 )
                  (  0.0000000  0.0000000  1.0000000 )       ( -0.7646138 )


      isym = 14     inv. 180 deg rotation - cart. axis [1,-1,0]  

 cryst.   s(14) = (     0          1          0      )    f =( -0.5000000 )
                  (     1          0          0      )       (  0.5000000 )
                  (     0          0          1      )       ( -0.5000000 )

 cart.    s(14) = (  0.0000000  1.0000000  0.0000000 )    f =( -0.5000000 )
                  (  1.0000000  0.0000000  0.0000000 )       (  0.5000000 )
                  (  0.0000000  0.0000000  1.0000000 )       ( -0.7646138 )


      isym = 15     inv.  90 deg rotation - cart. axis [0,0,-1]  

 cryst.   s(15) = (     0          1          0      )
                  (    -1          0          0      )
                  (     0          0         -1      )

 cart.    s(15) = (  0.0000000 -1.0000000  0.0000000 )
                  (  1.0000000  0.0000000  0.0000000 )
                  (  0.0000000  0.0000000 -1.0000000 )


      isym = 16     inv.  90 deg rotation - cart. axis [0,0,1]   

 cryst.   s(16) = (     0         -1          0      )
                  (     1          0          0      )
                  (     0          0         -1      )

 cart.    s(16) = (  0.0000000  1.0000000  0.0000000 )
                  ( -1.0000000  0.0000000  0.0000000 )
                  (  0.0000000  0.0000000 -1.0000000 )


   Cartesian axes

     site n.     atom                  positions (alat units)
         1           Al  tau(   1) = (   0.0000000   0.5000000   0.0000000  )
         2           Al  tau(   2) = (   0.5000000   0.0000000   0.7646138  )
         3           Al  tau(   3) = (   0.0000000   0.5000000   0.7646138  )
         4           Al  tau(   4) = (   0.5000000   0.0000000   0.0000000  )
         5           Al  tau(   5) = (   0.0000000   0.0000000   0.0000000  )
         6           Al  tau(   6) = (   0.5000000   0.5000000   0.7646138  )
         7           Cs  tau(   7) = (   0.2126529   0.2873471   0.3823069  )
         8           Cs  tau(   8) = (   0.2873471   0.7873471   0.3823069  )
         9           Cs  tau(   9) = (   0.2873471   0.7873471   1.1469206  )
        10           Cs  tau(  10) = (   0.2126529   0.2873471   1.1469206  )
        11           Cs  tau(  11) = (   0.7873471   0.7126529   0.3823069  )
        12           Cs  tau(  12) = (   0.7873471   0.7126529   1.1469206  )
        13           Cs  tau(  13) = (   0.7126529   0.2126529   0.3823069  )
        14           Cs  tau(  14) = (   0.7126529   0.2126529   1.1469206  )
        15           Cs  tau(  15) = (   0.0000000   0.0000000   0.7646138  )
        16           Cs  tau(  16) = (   0.5000000   0.5000000   0.0000000  )
        17           H   tau(  17) = (   0.0437980   0.6799493   0.5849086  )
        18           H   tau(  18) = (   0.4562020   0.1799493   0.1797052  )
        19           H   tau(  19) = (   0.8200507   0.4562020   0.1797052  )
        20           H   tau(  20) = (   0.4562020   0.1799493   1.3495223  )
        21           H   tau(  21) = (   0.8200507   0.4562020   1.3495223  )
        22           H   tau(  22) = (   0.9562020   0.3200507   0.5849086  )
        23           H   tau(  23) = (   0.6799493   0.9562020   0.5849086  )
        24           H   tau(  24) = (   0.9562020   0.3200507   0.9443189  )
        25           H   tau(  25) = (   0.6799493   0.9562020   0.9443189  )
        26           H   tau(  26) = (   0.3200507   0.0437980   0.5849086  )
        27           H   tau(  27) = (   0.0437980   0.6799493   0.9443189  )
        28           H   tau(  28) = (   0.3200507   0.0437980   0.9443189  )
        29           H   tau(  29) = (   0.5437980   0.8200507   0.1797052  )
        30           H   tau(  30) = (   0.1799493   0.5437980   0.1797052  )
        31           H   tau(  31) = (   0.5437980   0.8200507   1.3495223  )
        32           H   tau(  32) = (   0.1799493   0.5437980   1.3495223  )
        33           H   tau(  33) = (   0.0751217   0.2476266   0.0000000  )
        34           H   tau(  34) = (   0.4248783   0.7476266   0.7646138  )
        35           H   tau(  35) = (   0.2523734   0.4248783   0.7646138  )
        36           H   tau(  36) = (   0.9248783   0.7523734   0.0000000  )
        37           H   tau(  37) = (   0.2476266   0.9248783   0.0000000  )
        38           H   tau(  38) = (   0.7523734   0.0751217   0.0000000  )
        39           H   tau(  39) = (   0.5751217   0.2523734   0.7646138  )
        40           H   tau(  40) = (   0.7476266   0.5751217   0.7646138  )
        41           H   tau(  41) = (   0.0000000   0.0000000   0.2607407  )
        42           H   tau(  42) = (   0.5000000   0.5000000   0.5038731  )
        43           H   tau(  43) = (   0.5000000   0.5000000   1.0253544  )
        44           H   tau(  44) = (   0.0000000   0.0000000   1.2684868  )

   Crystallographic axes

     site n.     atom                  positions (cryst. coord.)
         1           Al  tau(   1) = (  0.0000000  0.5000000  0.0000000  )
         2           Al  tau(   2) = (  0.5000000  0.0000000  0.5000000  )
         3           Al  tau(   3) = (  0.0000000  0.5000000  0.5000000  )
         4           Al  tau(   4) = (  0.5000000  0.0000000  0.0000000  )
         5           Al  tau(   5) = (  0.0000000  0.0000000  0.0000000  )
         6           Al  tau(   6) = (  0.5000000  0.5000000  0.5000000  )
         7           Cs  tau(   7) = (  0.2126529  0.2873471  0.2500000  )
         8           Cs  tau(   8) = (  0.2873471  0.7873471  0.2500000  )
         9           Cs  tau(   9) = (  0.2873471  0.7873471  0.7500000  )
        10           Cs  tau(  10) = (  0.2126529  0.2873471  0.7500000  )
        11           Cs  tau(  11) = (  0.7873471  0.7126529  0.2500000  )
        12           Cs  tau(  12) = (  0.7873471  0.7126529  0.7500000  )
        13           Cs  tau(  13) = (  0.7126529  0.2126529  0.2500000  )
        14           Cs  tau(  14) = (  0.7126529  0.2126529  0.7500000  )
        15           Cs  tau(  15) = (  0.0000000  0.0000000  0.5000000  )
        16           Cs  tau(  16) = (  0.5000000  0.5000000  0.0000000  )
        17           H   tau(  17) = (  0.0437980  0.6799493  0.3824863  )
        18           H   tau(  18) = (  0.4562020  0.1799493  0.1175137  )
        19           H   tau(  19) = (  0.8200507  0.4562020  0.1175137  )
        20           H   tau(  20) = (  0.4562020  0.1799493  0.8824863  )
        21           H   tau(  21) = (  0.8200507  0.4562020  0.8824863  )
        22           H   tau(  22) = (  0.9562020  0.3200507  0.3824863  )
        23           H   tau(  23) = (  0.6799493  0.9562020  0.3824863  )
        24           H   tau(  24) = (  0.9562020  0.3200507  0.6175137  )
        25           H   tau(  25) = (  0.6799493  0.9562020  0.6175137  )
        26           H   tau(  26) = (  0.3200507  0.0437980  0.3824863  )
        27           H   tau(  27) = (  0.0437980  0.6799493  0.6175137  )
        28           H   tau(  28) = (  0.3200507  0.0437980  0.6175137  )
        29           H   tau(  29) = (  0.5437980  0.8200507  0.1175137  )
        30           H   tau(  30) = (  0.1799493  0.5437980  0.1175137  )
        31           H   tau(  31) = (  0.5437980  0.8200507  0.8824863  )
        32           H   tau(  32) = (  0.1799493  0.5437980  0.8824863  )
        33           H   tau(  33) = (  0.0751217  0.2476266  0.0000000  )
        34           H   tau(  34) = (  0.4248783  0.7476266  0.5000000  )
        35           H   tau(  35) = (  0.2523734  0.4248783  0.5000000  )
        36           H   tau(  36) = (  0.9248783  0.7523734  0.0000000  )
        37           H   tau(  37) = (  0.2476266  0.9248783  0.0000000  )
        38           H   tau(  38) = (  0.7523734  0.0751217  0.0000000  )
        39           H   tau(  39) = (  0.5751217  0.2523734  0.5000000  )
        40           H   tau(  40) = (  0.7476266  0.5751217  0.5000000  )
        41           H   tau(  41) = (  0.0000000  0.0000000  0.1705048  )
        42           H   tau(  42) = (  0.5000000  0.5000000  0.3294952  )
        43           H   tau(  43) = (  0.5000000  0.5000000  0.6705048  )
        44           H   tau(  44) = (  0.0000000  0.0000000  0.8294952  )

     number of k points=    40  Marzari-Vanderbilt smearing, width (Ry)=  0.0050
                       cart. coord. in units 2pi/alat
        k(    1) = (   0.0000000   0.0000000   0.0000000), wk =   0.0058309
        k(    2) = (   0.0000000   0.0000000   0.0934178), wk =   0.0116618
        k(    3) = (   0.0000000   0.0000000   0.1868357), wk =   0.0116618
        k(    4) = (   0.0000000   0.0000000   0.2802535), wk =   0.0116618
        k(    5) = (   0.0000000   0.1428571   0.0000000), wk =   0.0233236
        k(    6) = (   0.0000000   0.1428571   0.0934178), wk =   0.0466472
        k(    7) = (   0.0000000   0.1428571   0.1868357), wk =   0.0466472
        k(    8) = (   0.0000000   0.1428571   0.2802535), wk =   0.0466472
        k(    9) = (   0.0000000   0.2857143   0.0000000), wk =   0.0233236
        k(   10) = (   0.0000000   0.2857143   0.0934178), wk =   0.0466472
        k(   11) = (   0.0000000   0.2857143   0.1868357), wk =   0.0466472
        k(   12) = (   0.0000000   0.2857143   0.2802535), wk =   0.0466472
        k(   13) = (   0.0000000   0.4285714   0.0000000), wk =   0.0233236
        k(   14) = (   0.0000000   0.4285714   0.0934178), wk =   0.0466472
        k(   15) = (   0.0000000   0.4285714   0.1868357), wk =   0.0466472
        k(   16) = (   0.0000000   0.4285714   0.2802535), wk =   0.0466472
        k(   17) = (   0.1428571   0.1428571   0.0000000), wk =   0.0233236
        k(   18) = (   0.1428571   0.1428571   0.0934178), wk =   0.0466472
        k(   19) = (   0.1428571   0.1428571   0.1868357), wk =   0.0466472
        k(   20) = (   0.1428571   0.1428571   0.2802535), wk =   0.0466472
        k(   21) = (   0.1428571   0.2857143   0.0000000), wk =   0.0466472
        k(   22) = (   0.1428571   0.2857143   0.0934178), wk =   0.0932945
        k(   23) = (   0.1428571   0.2857143   0.1868357), wk =   0.0932945
        k(   24) = (   0.1428571   0.2857143   0.2802535), wk =   0.0932945
        k(   25) = (   0.1428571   0.4285714   0.0000000), wk =   0.0466472
        k(   26) = (   0.1428571   0.4285714   0.0934178), wk =   0.0932945
        k(   27) = (   0.1428571   0.4285714   0.1868357), wk =   0.0932945
        k(   28) = (   0.1428571   0.4285714   0.2802535), wk =   0.0932945
        k(   29) = (   0.2857143   0.2857143   0.0000000), wk =   0.0233236
        k(   30) = (   0.2857143   0.2857143   0.0934178), wk =   0.0466472
        k(   31) = (   0.2857143   0.2857143   0.1868357), wk =   0.0466472
        k(   32) = (   0.2857143   0.2857143   0.2802535), wk =   0.0466472
        k(   33) = (   0.2857143   0.4285714   0.0000000), wk =   0.0466472
        k(   34) = (   0.2857143   0.4285714   0.0934178), wk =   0.0932945
        k(   35) = (   0.2857143   0.4285714   0.1868357), wk =   0.0932945
        k(   36) = (   0.2857143   0.4285714   0.2802535), wk =   0.0932945
        k(   37) = (   0.4285714   0.4285714   0.0000000), wk =   0.0233236
        k(   38) = (   0.4285714   0.4285714   0.0934178), wk =   0.0466472
        k(   39) = (   0.4285714   0.4285714   0.1868357), wk =   0.0466472
        k(   40) = (   0.4285714   0.4285714   0.2802535), wk =   0.0466472

                       cryst. coord.
        k(    1) = (   0.0000000   0.0000000   0.0000000), wk =   0.0058309
        k(    2) = (   0.0000000   0.0000000   0.1428571), wk =   0.0116618
        k(    3) = (   0.0000000   0.0000000   0.2857143), wk =   0.0116618
        k(    4) = (   0.0000000   0.0000000   0.4285714), wk =   0.0116618
        k(    5) = (   0.0000000   0.1428571   0.0000000), wk =   0.0233236
        k(    6) = (   0.0000000   0.1428571   0.1428571), wk =   0.0466472
        k(    7) = (   0.0000000   0.1428571   0.2857143), wk =   0.0466472
        k(    8) = (   0.0000000   0.1428571   0.4285714), wk =   0.0466472
        k(    9) = (   0.0000000   0.2857143   0.0000000), wk =   0.0233236
        k(   10) = (   0.0000000   0.2857143   0.1428571), wk =   0.0466472
        k(   11) = (   0.0000000   0.2857143   0.2857143), wk =   0.0466472
        k(   12) = (   0.0000000   0.2857143   0.4285714), wk =   0.0466472
        k(   13) = (   0.0000000   0.4285714   0.0000000), wk =   0.0233236
        k(   14) = (   0.0000000   0.4285714   0.1428571), wk =   0.0466472
        k(   15) = (   0.0000000   0.4285714   0.2857143), wk =   0.0466472
        k(   16) = (   0.0000000   0.4285714   0.4285714), wk =   0.0466472
        k(   17) = (   0.1428571   0.1428571   0.0000000), wk =   0.0233236
        k(   18) = (   0.1428571   0.1428571   0.1428571), wk =   0.0466472
        k(   19) = (   0.1428571   0.1428571   0.2857143), wk =   0.0466472
        k(   20) = (   0.1428571   0.1428571   0.4285714), wk =   0.0466472
        k(   21) = (   0.1428571   0.2857143   0.0000000), wk =   0.0466472
        k(   22) = (   0.1428571   0.2857143   0.1428571), wk =   0.0932945
        k(   23) = (   0.1428571   0.2857143   0.2857143), wk =   0.0932945
        k(   24) = (   0.1428571   0.2857143   0.4285714), wk =   0.0932945
        k(   25) = (   0.1428571   0.4285714   0.0000000), wk =   0.0466472
        k(   26) = (   0.1428571   0.4285714   0.1428571), wk =   0.0932945
        k(   27) = (   0.1428571   0.4285714   0.2857143), wk =   0.0932945
        k(   28) = (   0.1428571   0.4285714   0.4285714), wk =   0.0932945
        k(   29) = (   0.2857143   0.2857143   0.0000000), wk =   0.0233236
        k(   30) = (   0.2857143   0.2857143   0.1428571), wk =   0.0466472
        k(   31) = (   0.2857143   0.2857143   0.2857143), wk =   0.0466472
        k(   32) = (   0.2857143   0.2857143   0.4285714), wk =   0.0466472
        k(   33) = (   0.2857143   0.4285714   0.0000000), wk =   0.0466472
        k(   34) = (   0.2857143   0.4285714   0.1428571), wk =   0.0932945
        k(   35) = (   0.2857143   0.4285714   0.2857143), wk =   0.0932945
        k(   36) = (   0.2857143   0.4285714   0.4285714), wk =   0.0932945
        k(   37) = (   0.4285714   0.4285714   0.0000000), wk =   0.0233236
        k(   38) = (   0.4285714   0.4285714   0.1428571), wk =   0.0466472
        k(   39) = (   0.4285714   0.4285714   0.2857143), wk =   0.0466472
        k(   40) = (   0.4285714   0.4285714   0.4285714), wk =   0.0466472

     Dense  grid:   414315 G-vectors     FFT dimensions: (  90,  90, 128)

     Smooth grid:   296573 G-vectors     FFT dimensions: (  72,  72, 120)

     Dynamical RAM for                 wfc:       1.66 MB

     Dynamical RAM for     wfc (w. buffer):      67.87 MB

     Dynamical RAM for           str. fact:       0.68 MB

     Dynamical RAM for           local pot:       0.00 MB

     Dynamical RAM for          nlocal pot:       6.94 MB

     Dynamical RAM for                qrad:       9.63 MB

     Dynamical RAM for          rho,v,vnew:       1.60 MB

     Dynamical RAM for               rhoin:       0.53 MB

     Dynamical RAM for            rho*nmix:       3.61 MB

     Dynamical RAM for           G-vectors:       0.93 MB

     Dynamical RAM for          h,s,v(r/c):       1.23 MB

     Dynamical RAM for          <psi|beta>:       0.43 MB

     Dynamical RAM for                 psi:       3.31 MB

     Dynamical RAM for                hpsi:       3.31 MB

     Dynamical RAM for                spsi:       3.31 MB

     Dynamical RAM for      wfcinit/wfcrot:       8.11 MB

     Dynamical RAM for           addusdens:      48.31 MB

     Dynamical RAM for          addusforce:      60.72 MB

     Dynamical RAM for         addusstress:      45.37 MB

     Estimated static dynamical RAM per process >      90.64 MB

     Estimated max dynamical RAM per process >     154.97 MB

     Estimated total dynamical RAM >       4.24 GB

     Initial potential from superposition of free atoms

     starting charge     135.5921, renormalised to     136.0000
     Starting wfcs are  182 randomized atomic wfcs
     Checking if some PAW data can be deallocated... 
       PAW data deallocated on   25 nodes for type:  2

     total cpu time spent up to now is       13.4 secs

     Self-consistent Calculation

     iteration #  1     ecut=    80.00 Ry     beta= 0.70
     Davidson diagonalization with overlap

---- Real-time Memory Report at c_bands before calling an iterative solver
           238 MiB given to the printing process from OS
             0 MiB allocation reported by mallinfo(arena+hblkhd)
        118140 MiB available memory on the node where the printing process lives
------------------
     ethr =  1.00E-02,  avg # of iterations =  4.4

     total cpu time spent up to now is       31.6 secs

     total energy              =    -898.61575000 Ry
     estimated scf accuracy    <       2.68319720 Ry

     iteration #  2     ecut=    80.00 Ry     beta= 0.70
     Davidson diagonalization with overlap

---- Real-time Memory Report at c_bands before calling an iterative solver
           296 MiB given to the printing process from OS
             0 MiB allocation reported by mallinfo(arena+hblkhd)
        116898 MiB available memory on the node where the printing process lives
------------------
     ethr =  1.97E-03,  avg # of iterations =  2.0

     total cpu time spent up to now is       46.7 secs

     total energy              =    -899.04060411 Ry
     estimated scf accuracy    <       0.08824446 Ry

     iteration #  3     ecut=    80.00 Ry     beta= 0.70
     Davidson diagonalization with overlap

---- Real-time Memory Report at c_bands before calling an iterative solver
           308 MiB given to the printing process from OS
             0 MiB allocation reported by mallinfo(arena+hblkhd)
        116537 MiB available memory on the node where the printing process lives
------------------
     c_bands:  1 eigenvalues not converged
     c_bands:  1 eigenvalues not converged
     ethr =  6.49E-05,  avg # of iterations = 12.4

     total cpu time spent up to now is       73.2 secs

     total energy              =    -899.06740678 Ry
     estimated scf accuracy    <       0.01104735 Ry

     iteration #  4     ecut=    80.00 Ry     beta= 0.70
     Davidson diagonalization with overlap

---- Real-time Memory Report at c_bands before calling an iterative solver
           311 MiB given to the printing process from OS
             0 MiB allocation reported by mallinfo(arena+hblkhd)
        116492 MiB available memory on the node where the printing process lives
------------------
     c_bands:  1 eigenvalues not converged
     ethr =  8.12E-06,  avg # of iterations =  7.8

     total cpu time spent up to now is       93.8 secs

     total energy              =    -899.07038050 Ry
     estimated scf accuracy    <       0.00038425 Ry

     iteration #  5     ecut=    80.00 Ry     beta= 0.70
     Davidson diagonalization with overlap

---- Real-time Memory Report at c_bands before calling an iterative solver
           315 MiB given to the printing process from OS
             0 MiB allocation reported by mallinfo(arena+hblkhd)
        116471 MiB available memory on the node where the printing process lives
------------------
     ethr =  2.83E-07,  avg # of iterations =  4.9

     total cpu time spent up to now is      113.8 secs

     total energy              =    -899.07053489 Ry
     estimated scf accuracy    <       0.00002548 Ry

     iteration #  6     ecut=    80.00 Ry     beta= 0.70
     Davidson diagonalization with overlap

---- Real-time Memory Report at c_bands before calling an iterative solver
           318 MiB given to the printing process from OS
             0 MiB allocation reported by mallinfo(arena+hblkhd)
        116424 MiB available memory on the node where the printing process lives
------------------
     ethr =  1.87E-08,  avg # of iterations =  6.5

     total cpu time spent up to now is      140.3 secs

     total energy              =    -899.07056541 Ry
     estimated scf accuracy    <       0.00000442 Ry

     iteration #  7     ecut=    80.00 Ry     beta= 0.70
     Davidson diagonalization with overlap

---- Real-time Memory Report at c_bands before calling an iterative solver
           322 MiB given to the printing process from OS
             0 MiB allocation reported by mallinfo(arena+hblkhd)
        116348 MiB available memory on the node where the printing process lives
------------------
     ethr =  3.25E-09,  avg # of iterations =  4.7

     total cpu time spent up to now is      157.6 secs

     total energy              =    -899.07056692 Ry
     estimated scf accuracy    <       0.00000028 Ry

     iteration #  8     ecut=    80.00 Ry     beta= 0.70
     Davidson diagonalization with overlap

---- Real-time Memory Report at c_bands before calling an iterative solver
           323 MiB given to the printing process from OS
             0 MiB allocation reported by mallinfo(arena+hblkhd)
        116351 MiB available memory on the node where the printing process lives
------------------
     ethr =  2.03E-10,  avg # of iterations =  6.4

     total cpu time spent up to now is      179.6 secs

     End of self-consistent calculation

          k = 0.0000 0.0000 0.0000 ( 37035 PWs)   bands (ev):

   -12.8645 -12.6115 -12.2209 -11.9901 -11.9901 -11.9710 -11.9710 -11.9213
   -11.4785 -11.4664  -2.3496  -2.1002  -1.8844  -1.8067  -1.6415  -1.6415
    -1.5531  -0.8999  -0.8999  -0.8330  -0.2732  -0.2732   0.1865   0.1865
     0.2308   0.5211   0.6537   0.6849   0.6849   1.3244   1.7946   1.7946
     1.9726   1.9807   2.2087   2.3584   2.3584   2.3927   2.4404   2.4404
     2.6343   2.6387   3.4144   3.6634   3.7128   3.8907   3.8907   4.7976
     4.8068   5.1937   5.1937   5.3097   5.9433   6.4228   6.4228   6.5076
     6.5076   6.9119   7.2380   7.3133   7.3465   8.2011   8.2412   8.2725
     8.2725   8.4226   9.4395   9.4395  10.7761  11.8385  11.8787  11.9029
    12.2070  12.2279  12.6585  12.6585  12.6692  12.6692  12.9093  13.2488
    13.6401  13.6401

     occupation numbers 
     1.0000   1.0000   1.0000   1.0000   1.0000   1.0000   1.0000   1.0000
     1.0000   1.0000   1.0000   1.0000   1.0000   1.0000   1.0000   1.0000
     1.0000   1.0000   1.0000   1.0000   1.0000   1.0000   1.0000   1.0000
     1.0000   1.0000   1.0000   1.0000   1.0000   1.0000   1.0000   1.0000
     1.0000   1.0000   1.0000   1.0000   1.0000   1.0000   1.0000   1.0000
     1.0000   1.0000   1.0000   1.0000   1.0000   1.0000   1.0000   1.0000
     1.0000   1.0000   1.0000   1.0000   1.0000   1.0000   1.0000   1.0000
     1.0000   1.0000   1.0000   1.0000   1.0000   1.0000   1.0000   1.0000
     1.0000   1.0000   1.0000   1.0000   0.0000   0.0000   0.0000   0.0000
     0.0000   0.0000   0.0000   0.0000   0.0000   0.0000   0.0000   0.0000
     0.0000   0.0000

          k = 0.0000 0.0000 0.0934 ( 37047 PWs)   bands (ev):

   -12.8558 -12.6322 -12.1979 -11.9891 -11.9891 -11.9720 -11.9720 -11.9323
   -11.4779 -11.4670  -2.3213  -2.0879  -1.8533  -1.8243  -1.6153  -1.6153
    -1.6116  -0.9581  -0.9581  -0.9314  -0.2509  -0.2509   0.1553   0.1553
     0.3139   0.5602   0.7631   0.7631   0.7716   1.2824   1.7572   1.7572
     1.9176   1.9932   2.1965   2.3562   2.3562   2.4231   2.4237   2.4237
     2.6305   2.6474   3.2421   3.5682   3.7181   3.9531   3.9531   4.7787
     4.9995   5.1242   5.1242   5.3017   6.1620   6.4365   6.4365   6.5101
     6.5101   6.8139   7.1272   7.3673   7.3972   8.1807   8.2043   8.3206
     8.3206   8.3326   9.3769   9.3769  10.8408  11.7819  11.8382  11.8685
    12.2166  12.3458  12.6864  12.6864  12.7183  12.7183  12.7427  13.2518
    13.6321  13.6322

     occupation numbers 
     1.0000   1.0000   1.0000   1.0000   1.0000   1.0000   1.0000   1.0000
     1.0000   1.0000   1.0000   1.0000   1.0000   1.0000   1.0000   1.0000
     1.0000   1.0000   1.0000   1.0000   1.0000   1.0000   1.0000   1.0000
     1.0000   1.0000   1.0000   1.0000   1.0000   1.0000   1.0000   1.0000
     1.0000   1.0000   1.0000   1.0000   1.0000   1.0000   1.0000   1.0000
     1.0000   1.0000   1.0000   1.0000   1.0000   1.0000   1.0000   1.0000
     1.0000   1.0000   1.0000   1.0000   1.0000   1.0000   1.0000   1.0000
     1.0000   1.0000   1.0000   1.0000   1.0000   1.0000   1.0000   1.0000
     1.0000   1.0000   1.0000   1.0000   0.0000   0.0000   0.0000   0.0000
     0.0000   0.0000   0.0000   0.0000   0.0000   0.0000   0.0000   0.0000
     0.0000   0.0000

          k = 0.0000 0.0000 0.1868 ( 37051 PWs)   bands (ev):

   -12.8302 -12.6811 -12.1426 -11.9865 -11.9865 -11.9746 -11.9746 -11.9644
   -11.4762 -11.4687  -2.2386  -2.0527  -1.8715  -1.7951  -1.7200  -1.5386
    -1.5386  -1.1490  -1.0980  -1.0980  -0.1929  -0.1929   0.0795   0.0795
     0.5254   0.6694   0.9578   0.9578   0.9905   1.1667   1.6398   1.6398
     1.8381   2.0274   2.1621   2.3522   2.3522   2.3899   2.3899   2.5000
     2.6196   2.6860   2.8520   3.2903   3.8620   4.1278   4.1278   4.5690
     4.9338   4.9338   5.4167   5.5461   6.4673   6.4673   6.5142   6.5142
     6.5708   6.5837   6.8242   7.4331   7.5357   8.0958   8.1227   8.1283
     8.4634   8.4634   9.2010   9.2010  11.0195  11.7074  11.7355  11.7888
    12.2035  12.4224  12.6041  12.7659  12.7659  12.8276  12.8276  13.3341
    13.6456  13.6456

     occupation numbers 
     1.0000   1.0000   1.0000   1.0000   1.0000   1.0000   1.0000   1.0000
     1.0000   1.0000   1.0000   1.0000   1.0000   1.0000   1.0000   1.0000
     1.0000   1.0000   1.0000   1.0000   1.0000   1.0000   1.0000   1.0000
     1.0000   1.0000   1.0000   1.0000   1.0000   1.0000   1.0000   1.0000
     1.0000   1.0000   1.0000   1.0000   1.0000   1.0000   1.0000   1.0000
     1.0000   1.0000   1.0000   1.0000   1.0000   1.0000   1.0000   1.0000
     1.0000   1.0000   1.0000   1.0000   1.0000   1.0000   1.0000   1.0000
     1.0000   1.0000   1.0000   1.0000   1.0000   1.0000   1.0000   1.0000
     1.0000   1.0000   1.0000   1.0000   0.0000   0.0000   0.0000   0.0000
     0.0000   0.0000   0.0000   0.0000   0.0000   0.0000   0.0000   0.0000
     0.0000   0.0000

          k = 0.0000 0.0000 0.2803 ( 36979 PWs)   bands (ev):

   -12.7897 -12.7378 -12.0767 -12.0144 -11.9827 -11.9827 -11.9784 -11.9784
   -11.4738 -11.4711  -2.1086  -1.9990  -1.9451  -1.9346  -1.5899  -1.4174
    -1.4174  -1.3849  -1.2635  -1.2635  -0.1111  -0.1111  -0.0156  -0.0156
     0.7899   0.8270   1.0038   1.0065   1.2032   1.2032   1.4454   1.4454
     1.9718   2.0916   2.1091   2.3524   2.3524   2.3637   2.3637   2.4035
     2.5684   2.6014   2.8040   3.0183   4.0630   4.3039   4.3814   4.3814
     4.6679   4.6679   5.9052   5.9106   6.2726   6.3943   6.4961   6.4961
     6.5119   6.5119   6.9932   7.3288   7.7273   7.9276   8.0028   8.0431
     8.6862   8.6862   8.9511   8.9511  11.2778  11.5502  11.6811  11.7133
    12.1618  12.1982  12.8540  12.8540  12.8951  12.8952  12.9339  13.3073
    13.5345  13.7491

     occupation numbers 
     1.0000   1.0000   1.0000   1.0000   1.0000   1.0000   1.0000   1.0000
     1.0000   1.0000   1.0000   1.0000   1.0000   1.0000   1.0000   1.0000
     1.0000   1.0000   1.0000   1.0000   1.0000   1.0000   1.0000   1.0000
     1.0000   1.0000   1.0000   1.0000   1.0000   1.0000   1.0000   1.0000
     1.0000   1.0000   1.0000   1.0000   1.0000   1.0000   1.0000   1.0000
     1.0000   1.0000   1.0000   1.0000   1.0000   1.0000   1.0000   1.0000
     1.0000   1.0000   1.0000   1.0000   1.0000   1.0000   1.0000   1.0000
     1.0000   1.0000   1.0000   1.0000   1.0000   1.0000   1.0000   1.0000
     1.0000   1.0000   1.0000   1.0000   0.0000   0.0000   0.0000   0.0000
     0.0000   0.0000   0.0000   0.0000   0.0000   0.0000   0.0000   0.0000
     0.0000   0.0000

          k = 0.0000 0.1429 0.0000 ( 37084 PWs)   bands (ev):

   -12.8372 -12.5837 -12.2605 -12.0077 -11.9833 -11.9677 -11.9480 -11.9227
   -11.5059 -11.4934  -2.2778  -2.0465  -1.8402  -1.7285  -1.6837  -1.5323
    -1.5233  -1.0215  -0.8082  -0.7187  -0.4825  -0.1940   0.0526   0.1632
     0.2794   0.6314   0.6839   0.7242   0.7474   1.2799   1.6483   1.7768
     1.9226   2.0167   2.0229   2.1483   2.1830   2.3685   2.4338   2.4859
     2.5698   2.6289   3.1856   3.6233   3.6755   4.0529   4.1035   4.9002
     4.9256   5.1218   5.1793   5.5356   6.0279   6.3277   6.3429   6.5835
     6.6913   7.0550   7.1626   7.2082   7.3577   8.0083   8.1115   8.1790
     8.2080   8.4871   9.3484   9.4285  10.8753  11.9032  11.9299  11.9882
    12.3121  12.3370  12.5344  12.7317  12.8380  12.8729  12.9572  13.2274
    13.4471  13.5737

     occupation numbers 
     1.0000   1.0000   1.0000   1.0000   1.0000   1.0000   1.0000   1.0000
     1.0000   1.0000   1.0000   1.0000   1.0000   1.0000   1.0000   1.0000
     1.0000   1.0000   1.0000   1.0000   1.0000   1.0000   1.0000   1.0000
     1.0000   1.0000   1.0000   1.0000   1.0000   1.0000   1.0000   1.0000
     1.0000   1.0000   1.0000   1.0000   1.0000   1.0000   1.0000   1.0000
     1.0000   1.0000   1.0000   1.0000   1.0000   1.0000   1.0000   1.0000
     1.0000   1.0000   1.0000   1.0000   1.0000   1.0000   1.0000   1.0000
     1.0000   1.0000   1.0000   1.0000   1.0000   1.0000   1.0000   1.0000
     1.0000   1.0000   1.0000   1.0000   0.0000   0.0000   0.0000   0.0000
     0.0000   0.0000   0.0000   0.0000   0.0000   0.0000   0.0000   0.0000
     0.0000   0.0000

          k = 0.0000 0.1429 0.0934 ( 37041 PWs)   bands (ev):

   -12.8286 -12.6057 -12.2373 -12.0136 -11.9817 -11.9667 -11.9489 -11.9283
   -11.5053 -11.4941  -2.2556  -2.0354  -1.8102  -1.7494  -1.6519  -1.5957
    -1.5001  -1.0345  -0.8996  -0.7968  -0.4418  -0.1760   0.0739   0.1881
     0.2126   0.6137   0.7841   0.8110   0.8718   1.2302   1.5756   1.7550
     1.9104   2.0126   2.0337   2.1596   2.1753   2.3665   2.4211   2.5013
     2.5668   2.6532   3.1313   3.5142   3.7170   4.0359   4.1039   4.8370
     5.0143   5.1054   5.1863   5.5605   6.0909   6.3131   6.4463   6.5883
     6.7077   6.9213   7.0951   7.3372   7.3951   8.0015   8.0277   8.2406
     8.2494   8.4195   9.2784   9.3581  10.9358  11.8498  11.8973  11.9613
    12.2656  12.3876  12.5540  12.7747  12.8529  12.8686  12.9658  13.1834
    13.4591  13.5153

     occupation numbers 
     1.0000   1.0000   1.0000   1.0000   1.0000   1.0000   1.0000   1.0000
     1.0000   1.0000   1.0000   1.0000   1.0000   1.0000   1.0000   1.0000
     1.0000   1.0000   1.0000   1.0000   1.0000   1.0000   1.0000   1.0000
     1.0000   1.0000   1.0000   1.0000   1.0000   1.0000   1.0000   1.0000
     1.0000   1.0000   1.0000   1.0000   1.0000   1.0000   1.0000   1.0000
     1.0000   1.0000   1.0000   1.0000   1.0000   1.0000   1.0000   1.0000
     1.0000   1.0000   1.0000   1.0000   1.0000   1.0000   1.0000   1.0000
     1.0000   1.0000   1.0000   1.0000   1.0000   1.0000   1.0000   1.0000
     1.0000   1.0000   1.0000   1.0000   0.0000   0.0000   0.0000   0.0000
     0.0000   0.0000   0.0000   0.0000   0.0000   0.0000   0.0000   0.0000
     0.0000   0.0000

          k = 0.0000 0.1429 0.1868 ( 37018 PWs)   bands (ev):

   -12.8036 -12.6558 -12.1839 -12.0334 -11.9769 -11.9643 -11.9514 -11.9416
   -11.5036 -11.4958  -2.1902  -2.0065  -1.7958  -1.7482  -1.7123  -1.5739
    -1.4240  -1.1049  -1.0940  -0.9633  -0.3571  -0.1273   0.0404   0.0833
     0.3662   0.6349   0.9403   1.0297   1.0690   1.1142   1.4271   1.6723
     1.9268   2.0036   2.0700   2.1541   2.1554   2.3621   2.3927   2.5273
     2.5566   2.7382   2.8975   3.3091   3.8314   4.0134   4.2489   4.6491
     4.9116   4.9405   5.5040   5.7650   6.1903   6.2337   6.5858   6.6204
     6.7128   6.8691   6.9040   7.4793   7.4981   7.9226   7.9729   8.1357
     8.3793   8.4380   9.0917   9.1658  11.0991  11.7144  11.8619  11.8974
    12.1848  12.3650  12.5698  12.8577  12.9026  12.9246  13.0936  13.1593
    13.4404  13.4701

     occupation numbers 
     1.0000   1.0000   1.0000   1.0000   1.0000   1.0000   1.0000   1.0000
     1.0000   1.0000   1.0000   1.0000   1.0000   1.0000   1.0000   1.0000
     1.0000   1.0000   1.0000   1.0000   1.0000   1.0000   1.0000   1.0000
     1.0000   1.0000   1.0000   1.0000   1.0000   1.0000   1.0000   1.0000
     1.0000   1.0000   1.0000   1.0000   1.0000   1.0000   1.0000   1.0000
     1.0000   1.0000   1.0000   1.0000   1.0000   1.0000   1.0000   1.0000
     1.0000   1.0000   1.0000   1.0000   1.0000   1.0000   1.0000   1.0000
     1.0000   1.0000   1.0000   1.0000   1.0000   1.0000   1.0000   1.0000
     1.0000   1.0000   1.0000   1.0000   0.0000   0.0000   0.0000   0.0000
     0.0000   0.0000   0.0000   0.0000   0.0000   0.0000   0.0000   0.0000
     0.0000   0.0000

          k = 0.0000 0.1429 0.2803 ( 37020 PWs)   bands (ev):

   -12.7638 -12.7125 -12.1235 -12.0706 -11.9691 -11.9621 -11.9548 -11.9546
   -11.5011 -11.4983  -2.0886  -1.9952  -1.8632  -1.8505  -1.5857  -1.4984
    -1.3040  -1.2650  -1.2210  -1.1414  -0.2484  -0.1275  -0.0313   0.0360
     0.6012   0.7443   0.8641   0.9245   1.2630   1.2946   1.3746   1.5139
     1.9742   1.9938   2.1149   2.1307   2.2184   2.3605   2.3686   2.4889
     2.5484   2.5946   2.8893   3.0897   3.9841   4.0709   4.4530   4.5149
     4.6833   4.7364   5.8647   6.0778   6.1041   6.3431   6.3922   6.6062
     6.6454   6.6457   7.2235   7.4931   7.6381   7.7811   7.9302   7.9505
     8.5876   8.6352   8.8425   8.9026  11.3250  11.5490  11.8277  11.8385
    12.1395  12.1909  12.7359  12.8577  12.9899  12.9918  13.2451  13.2455
    13.3735  13.3785

     occupation numbers 
     1.0000   1.0000   1.0000   1.0000   1.0000   1.0000   1.0000   1.0000
     1.0000   1.0000   1.0000   1.0000   1.0000   1.0000   1.0000   1.0000
     1.0000   1.0000   1.0000   1.0000   1.0000   1.0000   1.0000   1.0000
     1.0000   1.0000   1.0000   1.0000   1.0000   1.0000   1.0000   1.0000
     1.0000   1.0000   1.0000   1.0000   1.0000   1.0000   1.0000   1.0000
     1.0000   1.0000   1.0000   1.0000   1.0000   1.0000   1.0000   1.0000
     1.0000   1.0000   1.0000   1.0000   1.0000   1.0000   1.0000   1.0000
     1.0000   1.0000   1.0000   1.0000   1.0000   1.0000   1.0000   1.0000
     1.0000   1.0000   1.0000   1.0000   0.0000   0.0000   0.0000   0.0000
     0.0000   0.0000   0.0000   0.0000   0.0000   0.0000   0.0000   0.0000
     0.0000   0.0000

          k = 0.0000 0.2857 0.0000 ( 37060 PWs)   bands (ev):

   -12.7587 -12.5042 -12.3635 -12.1071 -11.9695 -11.9342 -11.8966 -11.8825
   -11.5815 -11.5681  -2.1041  -1.9471  -1.7752  -1.7534  -1.4609  -1.2992
    -1.2956  -1.2414  -0.8745  -0.6054  -0.3351  -0.2195  -0.1158   0.0449
     0.4834   0.5221   0.6638   0.8407   0.9580   1.1031   1.3653   1.5061
     1.7189   1.7870   1.8573   1.8690   1.9154   2.3946   2.4041   2.4134
     2.4734   2.7388   2.8584   3.6817   3.8012   4.1972   4.3725   5.0158
     5.1737   5.2192   5.2619   5.6808   6.1354   6.3256   6.3928   6.7489
     6.8407   6.9001   7.0086   7.2530   7.4052   7.6804   7.7973   7.9877
     8.0286   8.7490   9.0587   9.3900  11.1790  11.9547  12.0330  12.0795
    12.3886  12.5748  12.6242  12.6646  12.7846  12.8697  13.0644  13.0693
    13.2465  13.5832

     occupation numbers 
     1.0000   1.0000   1.0000   1.0000   1.0000   1.0000   1.0000   1.0000
     1.0000   1.0000   1.0000   1.0000   1.0000   1.0000   1.0000   1.0000
     1.0000   1.0000   1.0000   1.0000   1.0000   1.0000   1.0000   1.0000
     1.0000   1.0000   1.0000   1.0000   1.0000   1.0000   1.0000   1.0000
     1.0000   1.0000   1.0000   1.0000   1.0000   1.0000   1.0000   1.0000
     1.0000   1.0000   1.0000   1.0000   1.0000   1.0000   1.0000   1.0000
     1.0000   1.0000   1.0000   1.0000   1.0000   1.0000   1.0000   1.0000
     1.0000   1.0000   1.0000   1.0000   1.0000   1.0000   1.0000   1.0000
     1.0000   1.0000   1.0000   1.0000   0.0000   0.0000   0.0000   0.0000
     0.0000   0.0000   0.0000   0.0000   0.0000   0.0000   0.0000   0.0000
     0.0000   0.0000

          k = 0.0000 0.2857 0.0934 ( 37030 PWs)   bands (ev):

   -12.7510 -12.5335 -12.3344 -12.1153 -11.9674 -11.9352 -11.8962 -11.8833
   -11.5808 -11.5687  -2.1143  -1.9543  -1.7446  -1.7234  -1.4771  -1.3929
    -1.2346  -1.1765  -0.8868  -0.6489  -0.4768  -0.1099  -0.0774   0.0497
     0.3289   0.5244   0.7679   0.8421   1.0441   1.0606   1.2548   1.5339
     1.7284   1.8113   1.8716   1.9132   1.9559   2.3922   2.4099   2.4139
     2.4678   2.7720   2.8952   3.5755   3.8159   4.1478   4.3961   4.8849
     5.1472   5.1891   5.2872   5.8369   6.0133   6.1734   6.6783   6.7504
     6.8449   6.9640   7.0176   7.2472   7.4109   7.6598   7.8169   8.0083
     8.0615   8.6772   8.9861   9.3058  11.2077  11.8011  12.0230  12.1203
    12.3123  12.5474  12.6364  12.7112  12.7418  12.9288  13.1003  13.1675
    13.2996  13.4388

     occupation numbers 
     1.0000   1.0000   1.0000   1.0000   1.0000   1.0000   1.0000   1.0000
     1.0000   1.0000   1.0000   1.0000   1.0000   1.0000   1.0000   1.0000
     1.0000   1.0000   1.0000   1.0000   1.0000   1.0000   1.0000   1.0000
     1.0000   1.0000   1.0000   1.0000   1.0000   1.0000   1.0000   1.0000
     1.0000   1.0000   1.0000   1.0000   1.0000   1.0000   1.0000   1.0000
     1.0000   1.0000   1.0000   1.0000   1.0000   1.0000   1.0000   1.0000
     1.0000   1.0000   1.0000   1.0000   1.0000   1.0000   1.0000   1.0000
     1.0000   1.0000   1.0000   1.0000   1.0000   1.0000   1.0000   1.0000
     1.0000   1.0000   1.0000   1.0000   0.0000   0.0000   0.0000   0.0000
     0.0000   0.0000   0.0000   0.0000   0.0000   0.0000   0.0000   0.0000
     0.0000   0.0000

          k = 0.0000 0.2857 0.1868 ( 37058 PWs)   bands (ev):

   -12.7282 -12.5884 -12.2797 -12.1391 -11.9615 -11.9388 -11.8948 -11.8856
   -11.5789 -11.5706  -2.1201  -1.9882  -1.7149  -1.6118  -1.5083  -1.4203
    -1.1807  -1.1182  -0.9829  -0.7291  -0.5815  -0.1620   0.0861   0.0907
     0.2089   0.5463   0.7112   0.9004   0.9700   1.0360   1.2468   1.6313
     1.7085   1.8774   1.8971   2.0064   2.0450   2.3879   2.3993   2.4393
     2.4524   2.8124   2.9952   3.3529   3.8496   4.0238   4.4554   4.7149
     5.0008   5.1090   5.3514   5.7798   6.1369   6.2248   6.7100   6.8710
     6.9565   6.9701   7.0742   7.2912   7.3769   7.7055   7.8564   8.0275
     8.1618   8.5312   8.7975   9.0836  11.2782  11.6098  11.9224  12.1019
    12.2525  12.4269  12.7268  12.7534  12.8407  13.0410  13.0923  13.1622
    13.5398  13.5847

     occupation numbers 
     1.0000   1.0000   1.0000   1.0000   1.0000   1.0000   1.0000   1.0000
     1.0000   1.0000   1.0000   1.0000   1.0000   1.0000   1.0000   1.0000
     1.0000   1.0000   1.0000   1.0000   1.0000   1.0000   1.0000   1.0000
     1.0000   1.0000   1.0000   1.0000   1.0000   1.0000   1.0000   1.0000
     1.0000   1.0000   1.0000   1.0000   1.0000   1.0000   1.0000   1.0000
     1.0000   1.0000   1.0000   1.0000   1.0000   1.0000   1.0000   1.0000
     1.0000   1.0000   1.0000   1.0000   1.0000   1.0000   1.0000   1.0000
     1.0000   1.0000   1.0000   1.0000   1.0000   1.0000   1.0000   1.0000
     1.0000   1.0000   1.0000   1.0000   0.0000   0.0000   0.0000   0.0000
     0.0000   0.0000   0.0000   0.0000   0.0000   0.0000   0.0000   0.0000
     0.0000   0.0000

          k = 0.0000 0.2857 0.2803 ( 37067 PWs)   bands (ev):

   -12.6917 -12.6438 -12.2245 -12.1764 -11.9534 -11.9452 -11.8922 -11.8889
   -11.5763 -11.5733  -2.0973  -2.0463  -1.6640  -1.6061  -1.4331  -1.3847
    -1.1873  -1.1305  -1.0300  -0.8857  -0.4955  -0.3342   0.1838   0.1932
     0.2845   0.4759   0.6458   0.7362   0.9706   0.9901   1.4249   1.5802
     1.8046   1.8781   1.9387   1.9979   2.2772   2.3851   2.3879   2.4218
     2.4929   2.6810   3.1201   3.2153   3.8769   3.9139   4.5103   4.5806
     4.9404   5.0183   5.4090   5.5611   6.4033   6.4854   6.5906   6.7846
     6.9184   6.9620   7.2042   7.2928   7.5532   7.8068   7.8758   7.8904
     8.3310   8.5467   8.5666   8.7973  11.3647  11.4661  11.8854  11.9555
    12.3095  12.3504  12.7620  12.7781  12.9996  13.1259  13.1383  13.1455
    13.6164  13.6453

     occupation numbers 
     1.0000   1.0000   1.0000   1.0000   1.0000   1.0000   1.0000   1.0000
     1.0000   1.0000   1.0000   1.0000   1.0000   1.0000   1.0000   1.0000
     1.0000   1.0000   1.0000   1.0000   1.0000   1.0000   1.0000   1.0000
     1.0000   1.0000   1.0000   1.0000   1.0000   1.0000   1.0000   1.0000
     1.0000   1.0000   1.0000   1.0000   1.0000   1.0000   1.0000   1.0000
     1.0000   1.0000   1.0000   1.0000   1.0000   1.0000   1.0000   1.0000
     1.0000   1.0000   1.0000   1.0000   1.0000   1.0000   1.0000   1.0000
     1.0000   1.0000   1.0000   1.0000   1.0000   1.0000   1.0000   1.0000
     1.0000   1.0000   1.0000   1.0000   0.0000   0.0000   0.0000   0.0000
     0.0000   0.0000   0.0000   0.0000   0.0000   0.0000   0.0000   0.0000
     0.0000   0.0000

          k = 0.0000 0.4286 0.0000 ( 37048 PWs)   bands (ev):

   -12.6402 -12.5000 -12.3841 -12.2428 -11.9550 -11.9423 -11.8003 -11.7850
   -11.6873 -11.6729  -1.8970  -1.8767  -1.8553  -1.6009  -1.5746  -1.2622
    -1.0187  -0.9173  -0.7432  -0.5549  -0.5349  -0.2574  -0.0769   0.2152
     0.2541   0.4277   0.7544   0.8383   0.8446   1.0357   1.1552   1.3335
     1.4719   1.6027   1.6048   1.6267   1.9780   2.2603   2.4260   2.4279
     2.4505   2.4669   3.2818   3.6767   3.9137   4.0062   4.6524   4.8454
     5.4985   5.5699   5.8119   5.8176   5.8401   6.2651   6.2711   6.4159
     6.7233   6.9257   7.1090   7.1730   7.5151   7.6109   7.8450   7.8939
     7.8989   8.5051   9.1096   9.3023  11.6155  11.9161  11.9600  12.0018
    12.1202  12.2783  12.6029  12.6052  12.8209  12.9623  13.2308  13.2514
    13.5315  13.6182

     occupation numbers 
     1.0000   1.0000   1.0000   1.0000   1.0000   1.0000   1.0000   1.0000
     1.0000   1.0000   1.0000   1.0000   1.0000   1.0000   1.0000   1.0000
     1.0000   1.0000   1.0000   1.0000   1.0000   1.0000   1.0000   1.0000
     1.0000   1.0000   1.0000   1.0000   1.0000   1.0000   1.0000   1.0000
     1.0000   1.0000   1.0000   1.0000   1.0000   1.0000   1.0000   1.0000
     1.0000   1.0000   1.0000   1.0000   1.0000   1.0000   1.0000   1.0000
     1.0000   1.0000   1.0000   1.0000   1.0000   1.0000   1.0000   1.0000
     1.0000   1.0000   1.0000   1.0000   1.0000   1.0000   1.0000   1.0000
     1.0000   1.0000   1.0000   1.0000   0.0000   0.0000   0.0000   0.0000
     0.0000   0.0000   0.0000   0.0000   0.0000   0.0000   0.0000   0.0000
     0.0000   0.0000

          k = 0.0000 0.4286 0.0934 ( 37049 PWs)   bands (ev):

   -12.6351 -12.5115 -12.3736 -12.2492 -11.9533 -11.9418 -11.7996 -11.7858
   -11.6866 -11.6736  -1.9935  -1.9495  -1.7123  -1.6031  -1.4851  -1.2420
    -1.0302  -0.9041  -0.7449  -0.5654  -0.5381  -0.3442  -0.0319   0.1739
     0.2301   0.4435   0.6984   0.7969   0.8068   0.9641   1.0993   1.3189
     1.5779   1.6337   1.6715   1.7497   2.0300   2.3014   2.4231   2.4356
     2.4460   2.4862   3.3060   3.6175   3.8997   4.0148   4.6326   4.7944
     5.2922   5.5151   5.6341   5.6948   6.1241   6.2809   6.3086   6.5872
     6.6964   7.0485   7.0866   7.2613   7.5322   7.6042   7.8423   7.8517
     7.9578   8.4637   9.0167   9.2094  11.5148  11.6664  11.9726  12.0864
    12.2262  12.2857  12.6301  12.6544  12.9009  12.9050  13.3050  13.3140
    13.5515  13.5576

     occupation numbers 
     1.0000   1.0000   1.0000   1.0000   1.0000   1.0000   1.0000   1.0000
     1.0000   1.0000   1.0000   1.0000   1.0000   1.0000   1.0000   1.0000
     1.0000   1.0000   1.0000   1.0000   1.0000   1.0000   1.0000   1.0000
     1.0000   1.0000   1.0000   1.0000   1.0000   1.0000   1.0000   1.0000
     1.0000   1.0000   1.0000   1.0000   1.0000   1.0000   1.0000   1.0000
     1.0000   1.0000   1.0000   1.0000   1.0000   1.0000   1.0000   1.0000
     1.0000   1.0000   1.0000   1.0000   1.0000   1.0000   1.0000   1.0000
     1.0000   1.0000   1.0000   1.0000   1.0000   1.0000   1.0000   1.0000
     1.0000   1.0000   1.0000   1.0000   0.0000   0.0000   0.0000   0.0000
     0.0000   0.0000   0.0000   0.0000   0.0000   0.0000   0.0000   0.0000
     0.0000   0.0000

          k = 0.0000 0.4286 0.1868 ( 37044 PWs)   bands (ev):

   -12.6202 -12.5378 -12.3494 -12.2667 -11.9491 -11.9409 -11.7975 -11.7880
   -11.6846 -11.6756  -2.0773  -2.0358  -1.5717  -1.5655  -1.3448  -1.1858
    -1.0480  -0.8724  -0.7619  -0.6035  -0.5455  -0.4858   0.0112   0.0315
     0.2820   0.4610   0.6036   0.6804   0.7030   0.8045   1.1237   1.2765
     1.7073   1.7389   1.7942   1.9367   2.1919   2.3690   2.4159   2.4338
     2.4662   2.5792   3.3394   3.4360   3.8758   4.0500   4.5885   4.6830
     5.0051   5.2846   5.4696   5.6461   6.2320   6.3410   6.4891   6.7719
     6.7982   7.0140   7.3421   7.3455   7.5867   7.6165   7.8481   7.8833
     8.0021   8.3521   8.7894   8.9707  11.3702  11.4464  11.9256  12.0093
    12.3006  12.3200  12.7079  12.8075  12.8478  13.0876  13.3893  13.4777
    13.5741  13.6285

     occupation numbers 
     1.0000   1.0000   1.0000   1.0000   1.0000   1.0000   1.0000   1.0000
     1.0000   1.0000   1.0000   1.0000   1.0000   1.0000   1.0000   1.0000
     1.0000   1.0000   1.0000   1.0000   1.0000   1.0000   1.0000   1.0000
     1.0000   1.0000   1.0000   1.0000   1.0000   1.0000   1.0000   1.0000
     1.0000   1.0000   1.0000   1.0000   1.0000   1.0000   1.0000   1.0000
     1.0000   1.0000   1.0000   1.0000   1.0000   1.0000   1.0000   1.0000
     1.0000   1.0000   1.0000   1.0000   1.0000   1.0000   1.0000   1.0000
     1.0000   1.0000   1.0000   1.0000   1.0000   1.0000   1.0000   1.0000
     1.0000   1.0000   1.0000   1.0000   0.0000   0.0000   0.0000   0.0000
     0.0000   0.0000   0.0000   0.0000   0.0000   0.0000   0.0000   0.0000
     0.0000   0.0000

          k = 0.0000 0.4286 0.2803 ( 37055 PWs)   bands (ev):

   -12.5971 -12.5683 -12.3206 -12.2918 -11.9445 -11.9416 -11.7945 -11.7911
   -11.6817 -11.6785  -2.1117  -2.0960  -1.5172  -1.5030  -1.2248  -1.1629
    -0.9889  -0.8807  -0.7652  -0.6888  -0.5712  -0.5684  -0.0222   0.0080
     0.3742   0.4657   0.4931   0.5226   0.6709   0.7183   1.1729   1.2259
     1.7694   1.7842   1.9496   2.0027   2.3624   2.3953   2.4088   2.4152
     2.5853   2.6990   3.2445   3.2797   3.9267   4.0353   4.5616   4.5826
     4.8925   5.0085   5.4863   5.5632   6.2580   6.3091   6.7332   6.8479
     6.8943   6.9826   7.3926   7.4357   7.6892   7.7489   7.9042   7.9126
     8.0585   8.2031   8.5976   8.6961  11.2950  11.3188  11.9045  11.9319
    12.2893  12.3115  12.7648  12.7785  13.0788  13.1944  13.4562  13.5302
    13.6430  13.6876

     occupation numbers 
     1.0000   1.0000   1.0000   1.0000   1.0000   1.0000   1.0000   1.0000
     1.0000   1.0000   1.0000   1.0000   1.0000   1.0000   1.0000   1.0000
     1.0000   1.0000   1.0000   1.0000   1.0000   1.0000   1.0000   1.0000
     1.0000   1.0000   1.0000   1.0000   1.0000   1.0000   1.0000   1.0000
     1.0000   1.0000   1.0000   1.0000   1.0000   1.0000   1.0000   1.0000
     1.0000   1.0000   1.0000   1.0000   1.0000   1.0000   1.0000   1.0000
     1.0000   1.0000   1.0000   1.0000   1.0000   1.0000   1.0000   1.0000
     1.0000   1.0000   1.0000   1.0000   1.0000   1.0000   1.0000   1.0000
     1.0000   1.0000   1.0000   1.0000   0.0000   0.0000   0.0000   0.0000
     0.0000   0.0000   0.0000   0.0000   0.0000   0.0000   0.0000   0.0000
     0.0000   0.0000

          k = 0.1429 0.1429 0.0000 ( 37055 PWs)   bands (ev):

   -12.8103 -12.5562 -12.2823 -12.0085 -11.9878 -11.9809 -11.9297 -11.9260
   -11.5325 -11.5211  -2.1995  -1.9765  -1.8201  -1.6651  -1.6225  -1.5288
    -1.5032  -0.9463  -0.8352  -0.6768  -0.4065  -0.3836   0.1278   0.1447
     0.1781   0.5929   0.7145   0.8022   0.8515   1.2118   1.5711   1.6815
     1.8935   2.0302   2.0334   2.0469   2.1296   2.1373   2.1860   2.4949
     2.5109   2.7074   3.1751   3.4047   3.8093   3.9816   4.3692   4.9894
     5.0455   5.1228   5.1674   5.6712   6.1114   6.2681   6.5448   6.5501
     6.6271   7.0620   7.1502   7.1628   7.4424   7.8493   8.0239   8.1355
     8.1527   8.4334   9.3073   9.3530  10.9722  11.9376  12.0130  12.0858
    12.3783  12.4450  12.6534  12.7711  12.8774  12.9776  13.0976  13.2215
    13.2540  13.3601

     occupation numbers 
     1.0000   1.0000   1.0000   1.0000   1.0000   1.0000   1.0000   1.0000
     1.0000   1.0000   1.0000   1.0000   1.0000   1.0000   1.0000   1.0000
     1.0000   1.0000   1.0000   1.0000   1.0000   1.0000   1.0000   1.0000
     1.0000   1.0000   1.0000   1.0000   1.0000   1.0000   1.0000   1.0000
     1.0000   1.0000   1.0000   1.0000   1.0000   1.0000   1.0000   1.0000
     1.0000   1.0000   1.0000   1.0000   1.0000   1.0000   1.0000   1.0000
     1.0000   1.0000   1.0000   1.0000   1.0000   1.0000   1.0000   1.0000
     1.0000   1.0000   1.0000   1.0000   1.0000   1.0000   1.0000   1.0000
     1.0000   1.0000   1.0000   1.0000   0.0000   0.0000   0.0000   0.0000
     0.0000   0.0000   0.0000   0.0000   0.0000   0.0000   0.0000   0.0000
     0.0000   0.0000

          k = 0.1429 0.1429 0.0934 ( 37077 PWs)   bands (ev):

   -12.8019 -12.5795 -12.2575 -12.0081 -11.9938 -11.9888 -11.9287 -11.9233
   -11.5320 -11.5217  -2.1817  -1.9628  -1.7967  -1.6881  -1.6270  -1.5247
    -1.5042  -0.9356  -0.9125  -0.7586  -0.3800  -0.3438   0.0732   0.1308
     0.2051   0.6880   0.7056   0.7925   1.0229   1.1342   1.5414   1.6621
     1.9025   2.0250   2.0393   2.0548   2.0933   2.1528   2.2075   2.4923
     2.5054   2.7376   3.1301   3.4040   3.7991   3.9373   4.3463   4.8927
     4.9637   5.1675   5.3006   5.7147   6.1454   6.2957   6.4991   6.5158
     6.7406   6.9593   7.0766   7.3400   7.4685   7.8365   7.9900   8.0784
     8.2761   8.3650   9.2373   9.2743  11.0273  11.8968  11.9485  12.1143
    12.2785  12.5284  12.6135  12.7645  12.8668  12.9816  13.1388  13.2411
    13.2612  13.3536

     occupation numbers 
     1.0000   1.0000   1.0000   1.0000   1.0000   1.0000   1.0000   1.0000
     1.0000   1.0000   1.0000   1.0000   1.0000   1.0000   1.0000   1.0000
     1.0000   1.0000   1.0000   1.0000   1.0000   1.0000   1.0000   1.0000
     1.0000   1.0000   1.0000   1.0000   1.0000   1.0000   1.0000   1.0000
     1.0000   1.0000   1.0000   1.0000   1.0000   1.0000   1.0000   1.0000
     1.0000   1.0000   1.0000   1.0000   1.0000   1.0000   1.0000   1.0000
     1.0000   1.0000   1.0000   1.0000   1.0000   1.0000   1.0000   1.0000
     1.0000   1.0000   1.0000   1.0000   1.0000   1.0000   1.0000   1.0000
     1.0000   1.0000   1.0000   1.0000   0.0000   0.0000   0.0000   0.0000
     0.0000   0.0000   0.0000   0.0000   0.0000   0.0000   0.0000   0.0000
     0.0000   0.0000

          k = 0.1429 0.1429 0.1868 ( 37033 PWs)   bands (ev):

   -12.7774 -12.6310 -12.2016 -12.0301 -12.0036 -11.9916 -11.9261 -11.9202
   -11.5305 -11.5234  -2.1277  -1.9242  -1.7992  -1.7210  -1.6722  -1.4637
    -1.4427  -1.0831  -0.9674  -0.9297  -0.3014  -0.2593   0.0332   0.0486
     0.2405   0.7300   0.8171   0.8998   1.0608   1.2284   1.4692   1.5848
     1.9469   2.0125   2.0159   2.0560   2.1027   2.1483   2.2492   2.4883
     2.4941   2.8194   2.9551   3.3296   3.8325   3.9234   4.3835   4.6998
     4.8240   5.0489   5.6178   5.9094   6.2020   6.3670   6.3781   6.4560
     6.7571   6.9479   7.1107   7.4953   7.5398   7.7981   7.8628   8.1023
     8.3018   8.3971   9.0527   9.0681  11.1741  11.7301  11.9632  12.0832
    12.1804  12.4372  12.6354  12.7832  12.8990  13.0700  13.1571  13.2659
    13.2765  13.2897

     occupation numbers 
     1.0000   1.0000   1.0000   1.0000   1.0000   1.0000   1.0000   1.0000
     1.0000   1.0000   1.0000   1.0000   1.0000   1.0000   1.0000   1.0000
     1.0000   1.0000   1.0000   1.0000   1.0000   1.0000   1.0000   1.0000
     1.0000   1.0000   1.0000   1.0000   1.0000   1.0000   1.0000   1.0000
     1.0000   1.0000   1.0000   1.0000   1.0000   1.0000   1.0000   1.0000
     1.0000   1.0000   1.0000   1.0000   1.0000   1.0000   1.0000   1.0000
     1.0000   1.0000   1.0000   1.0000   1.0000   1.0000   1.0000   1.0000
     1.0000   1.0000   1.0000   1.0000   1.0000   1.0000   1.0000   1.0000
     1.0000   1.0000   1.0000   1.0000   0.0000   0.0000   0.0000   0.0000
     0.0000   0.0000   0.0000   0.0000   0.0000   0.0000   0.0000   0.0000
     0.0000   0.0000

          k = 0.1429 0.1429 0.2803 ( 37041 PWs)   bands (ev):

   -12.7384 -12.6878 -12.1381 -12.0788 -12.0000 -11.9956 -11.9227 -11.9203
   -11.5282 -11.5257  -2.0375  -1.9173  -1.8672  -1.7993  -1.5512  -1.4258
    -1.3438  -1.2275  -1.0813  -1.0582  -0.1946  -0.1523  -0.0788  -0.0338
     0.3779   0.6055   0.8586   0.9859   1.1934   1.3775   1.4297   1.4455
     1.9895   1.9955   2.0139   2.0379   2.1343   2.1352   2.3653   2.4866
     2.4876   2.6323   2.9866   3.1617   3.9378   3.9767   4.4885   4.5432
     4.7132   4.8419   5.9396   6.1681   6.2103   6.2719   6.3317   6.4420
     6.6430   6.8197   7.4152   7.6088   7.6302   7.7430   7.7707   7.8446
     8.5168   8.5649   8.8016   8.8114  11.3698  11.5614  11.9720  12.0186
    12.1644  12.2489  12.7626  12.8181  12.9843  13.1337  13.1658  13.1746
    13.2407  13.2794

     occupation numbers 
     1.0000   1.0000   1.0000   1.0000   1.0000   1.0000   1.0000   1.0000
     1.0000   1.0000   1.0000   1.0000   1.0000   1.0000   1.0000   1.0000
     1.0000   1.0000   1.0000   1.0000   1.0000   1.0000   1.0000   1.0000
     1.0000   1.0000   1.0000   1.0000   1.0000   1.0000   1.0000   1.0000
     1.0000   1.0000   1.0000   1.0000   1.0000   1.0000   1.0000   1.0000
     1.0000   1.0000   1.0000   1.0000   1.0000   1.0000   1.0000   1.0000
     1.0000   1.0000   1.0000   1.0000   1.0000   1.0000   1.0000   1.0000
     1.0000   1.0000   1.0000   1.0000   1.0000   1.0000   1.0000   1.0000
     1.0000   1.0000   1.0000   1.0000   0.0000   0.0000   0.0000   0.0000
     0.0000   0.0000   0.0000   0.0000   0.0000   0.0000   0.0000   0.0000
     0.0000   0.0000

          k = 0.1429 0.2857 0.0000 ( 37062 PWs)   bands (ev):

   -12.7333 -12.4771 -12.3602 -12.0831 -12.0057 -11.9364 -11.9176 -11.8759
   -11.6048 -11.5974  -2.0123  -1.8553  -1.7676  -1.6917  -1.4547  -1.3081
    -1.2853  -1.1357  -0.7519  -0.5857  -0.3978  -0.1917  -0.0669  -0.0634
     0.3868   0.5826   0.5937   0.8074   1.0063   1.0420   1.2983   1.5406
     1.5760   1.7878   1.8043   1.8458   1.9753   2.1104   2.2267   2.3473
     2.3756   2.7796   3.0192   3.4990   3.8949   4.0594   4.6308   5.0840
     5.2367   5.2515   5.3842   5.7448   6.2864   6.2900   6.4298   6.7000
     6.7783   6.8734   7.1166   7.1174   7.4817   7.6790   7.8496   7.8627
     7.9172   8.6631   9.0114   9.2928  11.2503  12.0237  12.0583  12.3122
    12.4126  12.5619  12.7111  12.7812  12.7970  12.9169  13.0624  13.1391
    13.2319  13.6102

     occupation numbers 
     1.0000   1.0000   1.0000   1.0000   1.0000   1.0000   1.0000   1.0000
     1.0000   1.0000   1.0000   1.0000   1.0000   1.0000   1.0000   1.0000
     1.0000   1.0000   1.0000   1.0000   1.0000   1.0000   1.0000   1.0000
     1.0000   1.0000   1.0000   1.0000   1.0000   1.0000   1.0000   1.0000
     1.0000   1.0000   1.0000   1.0000   1.0000   1.0000   1.0000   1.0000
     1.0000   1.0000   1.0000   1.0000   1.0000   1.0000   1.0000   1.0000
     1.0000   1.0000   1.0000   1.0000   1.0000   1.0000   1.0000   1.0000
     1.0000   1.0000   1.0000   1.0000   1.0000   1.0000   1.0000   1.0000
     1.0000   1.0000   1.0000   1.0000   0.0000   0.0000   0.0000   0.0000
     0.0000   0.0000   0.0000   0.0000   0.0000   0.0000   0.0000   0.0000
     0.0000   0.0000

          k = 0.1429 0.2857 0.0934 ( 37064 PWs)   bands (ev):

   -12.7257 -12.5093 -12.3274 -12.0920 -12.0039 -11.9477 -11.9073 -11.8757
   -11.6045 -11.5979  -2.0251  -1.8584  -1.7448  -1.6652  -1.4744  -1.3214
    -1.2736  -1.0855  -0.7946  -0.5815  -0.4871  -0.1885  -0.1078   0.0566
     0.2582   0.5967   0.7100   0.7520   0.8993   1.1231   1.3010   1.5639
     1.6072   1.7946   1.8212   1.8672   1.9872   2.1070   2.2427   2.3433
     2.3693   2.8122   3.0478   3.4723   3.8725   4.0186   4.6402   4.9259
     5.1083   5.3235   5.4211   5.8890   6.1725   6.2433   6.4791   6.7030
     6.8380   6.9561   7.1046   7.1735   7.4911   7.6873   7.7462   7.8796
     8.0368   8.6132   8.9444   9.2107  11.2752  11.8722  12.1095  12.2547
    12.4357  12.5688  12.6543  12.7969  12.8327  12.9741  13.0817  13.1468
    13.3595  13.4315

     occupation numbers 
     1.0000   1.0000   1.0000   1.0000   1.0000   1.0000   1.0000   1.0000
     1.0000   1.0000   1.0000   1.0000   1.0000   1.0000   1.0000   1.0000
     1.0000   1.0000   1.0000   1.0000   1.0000   1.0000   1.0000   1.0000
     1.0000   1.0000   1.0000   1.0000   1.0000   1.0000   1.0000   1.0000
     1.0000   1.0000   1.0000   1.0000   1.0000   1.0000   1.0000   1.0000
     1.0000   1.0000   1.0000   1.0000   1.0000   1.0000   1.0000   1.0000
     1.0000   1.0000   1.0000   1.0000   1.0000   1.0000   1.0000   1.0000
     1.0000   1.0000   1.0000   1.0000   1.0000   1.0000   1.0000   1.0000
     1.0000   1.0000   1.0000   1.0000   0.0000   0.0000   0.0000   0.0000
     0.0000   0.0000   0.0000   0.0000   0.0000   0.0000   0.0000   0.0000
     0.0000   0.0000

          k = 0.1429 0.2857 0.1868 ( 37062 PWs)   bands (ev):

   -12.7035 -12.5655 -12.2691 -12.1180 -11.9989 -11.9633 -11.8948 -11.8754
   -11.6038 -11.5990  -2.0352  -1.8944  -1.7070  -1.5730  -1.4904  -1.3439
    -1.2049  -1.0708  -0.9001  -0.6590  -0.5128  -0.1516  -0.1185   0.0871
     0.1936   0.5164   0.6237   0.7990   0.9556   1.2039   1.2441   1.5854
     1.6856   1.7902   1.8474   1.9816   1.9989   2.1049   2.3009   2.3425
     2.3527   2.8545   3.1200   3.3737   3.8603   3.9312   4.6222   4.7553
     4.9606   5.2542   5.4911   5.9494   6.1595   6.2876   6.5674   6.6519
     6.8567   7.0388   7.1888   7.3290   7.4564   7.6743   7.7295   7.9351
     8.1794   8.5068   8.7691   9.0004  11.3380  11.6746  12.1385  12.1878
    12.3881  12.5358  12.6521  12.7822  12.9059  13.0198  13.1134  13.2203
    13.3974  13.5248

     occupation numbers 
     1.0000   1.0000   1.0000   1.0000   1.0000   1.0000   1.0000   1.0000
     1.0000   1.0000   1.0000   1.0000   1.0000   1.0000   1.0000   1.0000
     1.0000   1.0000   1.0000   1.0000   1.0000   1.0000   1.0000   1.0000
     1.0000   1.0000   1.0000   1.0000   1.0000   1.0000   1.0000   1.0000
     1.0000   1.0000   1.0000   1.0000   1.0000   1.0000   1.0000   1.0000
     1.0000   1.0000   1.0000   1.0000   1.0000   1.0000   1.0000   1.0000
     1.0000   1.0000   1.0000   1.0000   1.0000   1.0000   1.0000   1.0000
     1.0000   1.0000   1.0000   1.0000   1.0000   1.0000   1.0000   1.0000
     1.0000   1.0000   1.0000   1.0000   0.0000   0.0000   0.0000   0.0000
     0.0000   0.0000   0.0000   0.0000   0.0000   0.0000   0.0000   0.0000
     0.0000   0.0000

          k = 0.1429 0.2857 0.2803 ( 37066 PWs)   bands (ev):

   -12.6677 -12.6206 -12.2107 -12.1588 -11.9921 -11.9754 -11.8875 -11.8755
   -11.6026 -11.6004  -2.0200  -1.9520  -1.6720  -1.5058  -1.4588  -1.3085
    -1.2073  -1.0892  -0.9861  -0.7862  -0.4055  -0.2366  -0.0147   0.0951
     0.1898   0.2853   0.6571   0.8046   1.0607   1.1203   1.3554   1.5100
     1.7595   1.8002   1.8756   1.9712   2.0899   2.1160   2.3170   2.3370
     2.4935   2.7384   3.2112   3.2888   3.8540   3.8875   4.5537   4.6395
     4.9750   5.1307   5.5707   5.7398   6.3493   6.4325   6.5917   6.6508
     6.8094   7.0166   7.2204   7.3669   7.6004   7.7244   7.7661   7.8862
     8.3326   8.5008   8.5606   8.7477  11.4187  11.5273  12.0679  12.2327
    12.3751  12.4659  12.6802  12.7528  13.0069  13.0366  13.1113  13.1849
    13.4134  13.5571

     occupation numbers 
     1.0000   1.0000   1.0000   1.0000   1.0000   1.0000   1.0000   1.0000
     1.0000   1.0000   1.0000   1.0000   1.0000   1.0000   1.0000   1.0000
     1.0000   1.0000   1.0000   1.0000   1.0000   1.0000   1.0000   1.0000
     1.0000   1.0000   1.0000   1.0000   1.0000   1.0000   1.0000   1.0000
     1.0000   1.0000   1.0000   1.0000   1.0000   1.0000   1.0000   1.0000
     1.0000   1.0000   1.0000   1.0000   1.0000   1.0000   1.0000   1.0000
     1.0000   1.0000   1.0000   1.0000   1.0000   1.0000   1.0000   1.0000
     1.0000   1.0000   1.0000   1.0000   1.0000   1.0000   1.0000   1.0000
     1.0000   1.0000   1.0000   1.0000   0.0000   0.0000   0.0000   0.0000
     0.0000   0.0000   0.0000   0.0000   0.0000   0.0000   0.0000   0.0000
     0.0000   0.0000

          k = 0.1429 0.4286 0.0000 ( 37032 PWs)   bands (ev):

   -12.6177 -12.4836 -12.3578 -12.2176 -11.9793 -11.9539 -11.8186 -11.8003
   -11.7044 -11.7029  -1.8333  -1.8004  -1.7797  -1.5395  -1.5185  -1.2651
    -0.9434  -0.8763  -0.8419  -0.4906  -0.3695  -0.2093  -0.0235   0.1166
     0.3004   0.3231   0.6109   0.6272   0.9011   0.9116   1.0993   1.2459
     1.5437   1.5692   1.5877   1.6666   2.0167   2.2014   2.2022   2.2914
     2.3199   2.4878   3.3805   3.6586   3.8942   3.9161   4.8214   4.9467
     5.5711   5.6040   5.8697   5.8827   6.0033   6.2056   6.3188   6.4519
     6.8048   6.8512   7.1008   7.1409   7.4744   7.4945   7.7688   7.8148
     7.9547   8.4912   9.0075   9.2020  11.6102  11.9257  12.0262  12.1475
    12.2828  12.5035  12.6824  12.7010  12.9231  12.9628  13.1298  13.1448
    13.5149  13.5933

     occupation numbers 
     1.0000   1.0000   1.0000   1.0000   1.0000   1.0000   1.0000   1.0000
     1.0000   1.0000   1.0000   1.0000   1.0000   1.0000   1.0000   1.0000
     1.0000   1.0000   1.0000   1.0000   1.0000   1.0000   1.0000   1.0000
     1.0000   1.0000   1.0000   1.0000   1.0000   1.0000   1.0000   1.0000
     1.0000   1.0000   1.0000   1.0000   1.0000   1.0000   1.0000   1.0000
     1.0000   1.0000   1.0000   1.0000   1.0000   1.0000   1.0000   1.0000
     1.0000   1.0000   1.0000   1.0000   1.0000   1.0000   1.0000   1.0000
     1.0000   1.0000   1.0000   1.0000   1.0000   1.0000   1.0000   1.0000
     1.0000   1.0000   1.0000   1.0000   0.0000   0.0000   0.0000   0.0000
     0.0000   0.0000   0.0000   0.0000   0.0000   0.0000   0.0000   0.0000
     0.0000   0.0000

          k = 0.1429 0.4286 0.0934 ( 37054 PWs)   bands (ev):

   -12.6128 -12.4942 -12.3479 -12.2241 -11.9772 -11.9540 -11.8179 -11.8006
   -11.7049 -11.7023  -1.9151  -1.8754  -1.6431  -1.5326  -1.4386  -1.2497
    -0.9753  -0.8591  -0.8331  -0.5267  -0.3551  -0.2746  -0.0094   0.0952
     0.2556   0.3412   0.5313   0.5924   0.9035   0.9430   1.0545   1.2583
     1.5409   1.5734   1.6751   1.7687   2.0356   2.1948   2.2108   2.2862
     2.3475   2.5316   3.3997   3.6136   3.8768   3.9337   4.8008   4.8868
     5.4190   5.5337   5.7262   5.8150   6.1916   6.1995   6.3700   6.6287
     6.7613   6.8950   7.1433   7.2047   7.4589   7.5029   7.7592   7.7890
     8.0276   8.4588   8.9392   9.1224  11.5385  11.7195  12.1628  12.2138
    12.3084  12.4810  12.6694  12.7207  12.9068  13.0093  13.1397  13.3098
    13.5135  13.5679

     occupation numbers 
     1.0000   1.0000   1.0000   1.0000   1.0000   1.0000   1.0000   1.0000
     1.0000   1.0000   1.0000   1.0000   1.0000   1.0000   1.0000   1.0000
     1.0000   1.0000   1.0000   1.0000   1.0000   1.0000   1.0000   1.0000
     1.0000   1.0000   1.0000   1.0000   1.0000   1.0000   1.0000   1.0000
     1.0000   1.0000   1.0000   1.0000   1.0000   1.0000   1.0000   1.0000
     1.0000   1.0000   1.0000   1.0000   1.0000   1.0000   1.0000   1.0000
     1.0000   1.0000   1.0000   1.0000   1.0000   1.0000   1.0000   1.0000
     1.0000   1.0000   1.0000   1.0000   1.0000   1.0000   1.0000   1.0000
     1.0000   1.0000   1.0000   1.0000   0.0000   0.0000   0.0000   0.0000
     0.0000   0.0000   0.0000   0.0000   0.0000   0.0000   0.0000   0.0000
     0.0000   0.0000

          k = 0.1429 0.4286 0.1868 ( 37078 PWs)   bands (ev):

   -12.5983 -12.5190 -12.3246 -12.2419 -11.9721 -11.9549 -11.8162 -11.8017
   -11.7056 -11.7014  -1.9939  -1.9544  -1.5062  -1.4748  -1.3022  -1.2082
    -1.0309  -0.8744  -0.8024  -0.5891  -0.3842  -0.3362  -0.0713   0.0696
     0.2314   0.2972   0.4460   0.5526   0.8901   0.8944   1.0549   1.2143
     1.6142   1.6554   1.8075   1.9149   2.0750   2.1876   2.2161   2.2708
     2.4526   2.6547   3.4153   3.4760   3.8610   3.9672   4.7501   4.7664
     5.1576   5.4624   5.4977   5.7306   6.2007   6.3769   6.5262   6.7167
     6.8805   6.9392   7.1929   7.3519   7.4291   7.5731   7.7400   7.8185
     8.1196   8.3698   8.7794   8.9262  11.4287  11.5216  12.1848  12.2262
    12.3804  12.4439  12.6837  12.8233  12.9143  13.0794  13.2648  13.2915
    13.5595  13.6573

     occupation numbers 
     1.0000   1.0000   1.0000   1.0000   1.0000   1.0000   1.0000   1.0000
     1.0000   1.0000   1.0000   1.0000   1.0000   1.0000   1.0000   1.0000
     1.0000   1.0000   1.0000   1.0000   1.0000   1.0000   1.0000   1.0000
     1.0000   1.0000   1.0000   1.0000   1.0000   1.0000   1.0000   1.0000
     1.0000   1.0000   1.0000   1.0000   1.0000   1.0000   1.0000   1.0000
     1.0000   1.0000   1.0000   1.0000   1.0000   1.0000   1.0000   1.0000
     1.0000   1.0000   1.0000   1.0000   1.0000   1.0000   1.0000   1.0000
     1.0000   1.0000   1.0000   1.0000   1.0000   1.0000   1.0000   1.0000
     1.0000   1.0000   1.0000   1.0000   0.0000   0.0000   0.0000   0.0000
     0.0000   0.0000   0.0000   0.0000   0.0000   0.0000   0.0000   0.0000
     0.0000   0.0000

          k = 0.1429 0.4286 0.2803 ( 37070 PWs)   bands (ev):

   -12.5760 -12.5483 -12.2962 -12.2673 -11.9663 -11.9573 -11.8144 -11.8030
   -11.7060 -11.7009  -2.0292  -2.0067  -1.4454  -1.3909  -1.1994  -1.1376
    -1.0601  -0.9535  -0.7893  -0.6321  -0.4269  -0.3527  -0.1121   0.0062
     0.1690   0.2856   0.4735   0.5281   0.8098   0.8592   1.0978   1.1571
     1.7021   1.7226   1.8955   1.9656   2.1334   2.1773   2.2176   2.2467
     2.6456   2.7606   3.3216   3.3567   3.9030   3.9683   4.6486   4.7270
     5.0579   5.2148   5.5226   5.6635   6.2082   6.4019   6.6727   6.7527
     6.9534   6.9734   7.2462   7.3234   7.5795   7.6849   7.7664   7.8437
     8.1618   8.2510   8.6583   8.7325  11.3719  11.4070  12.1408  12.2182
    12.4189  12.4246  12.6982  12.8376  13.0402  13.0917  13.2060  13.3636
    13.6931  13.7379

     occupation numbers 
     1.0000   1.0000   1.0000   1.0000   1.0000   1.0000   1.0000   1.0000
     1.0000   1.0000   1.0000   1.0000   1.0000   1.0000   1.0000   1.0000
     1.0000   1.0000   1.0000   1.0000   1.0000   1.0000   1.0000   1.0000
     1.0000   1.0000   1.0000   1.0000   1.0000   1.0000   1.0000   1.0000
     1.0000   1.0000   1.0000   1.0000   1.0000   1.0000   1.0000   1.0000
     1.0000   1.0000   1.0000   1.0000   1.0000   1.0000   1.0000   1.0000
     1.0000   1.0000   1.0000   1.0000   1.0000   1.0000   1.0000   1.0000
     1.0000   1.0000   1.0000   1.0000   1.0000   1.0000   1.0000   1.0000
     1.0000   1.0000   1.0000   1.0000   0.0000   0.0000   0.0000   0.0000
     0.0000   0.0000   0.0000   0.0000   0.0000   0.0000   0.0000   0.0000
     0.0000   0.0000

          k = 0.2857 0.2857 0.0000 ( 37085 PWs)   bands (ev):

   -12.6613 -12.3995 -12.3737 -12.0471 -12.0245 -12.0028 -11.9559 -11.8406
   -11.6781 -11.6650  -1.7871  -1.7656  -1.6693  -1.6146  -1.3404  -1.2406
    -1.1884  -0.8738  -0.5934  -0.5439  -0.4163  -0.2895  -0.0259   0.0890
     0.1686   0.4072   0.6035   0.7557   0.7580   1.0611   1.1143   1.3302
     1.4302   1.6122   1.6545   1.7423   1.8181   1.9638   2.1332   2.1573
     2.2090   2.8320   3.2783   3.3459   3.8763   4.0650   4.9494   5.2676
     5.3595   5.5133   5.7103   5.9108   5.9224   6.4726   6.5949   6.6049
     6.8258   6.9084   6.9556   7.1719   7.3728   7.5350   7.6106   7.7058
     7.9591   8.6518   8.8075   9.1163  11.4022  12.1429  12.2389  12.2877
    12.4184  12.5775  12.5783  12.9896  12.9988  13.1563  13.2997  13.3932
    13.4544  13.4865

     occupation numbers 
     1.0000   1.0000   1.0000   1.0000   1.0000   1.0000   1.0000   1.0000
     1.0000   1.0000   1.0000   1.0000   1.0000   1.0000   1.0000   1.0000
     1.0000   1.0000   1.0000   1.0000   1.0000   1.0000   1.0000   1.0000
     1.0000   1.0000   1.0000   1.0000   1.0000   1.0000   1.0000   1.0000
     1.0000   1.0000   1.0000   1.0000   1.0000   1.0000   1.0000   1.0000
[...]
     atom    4 type  2   force =     0.00000000    0.00000000    0.00000000
     atom    5 type  2   force =     0.00000000    0.00000000   -0.00000000
     atom    6 type  2   force =     0.00000000    0.00000000   -0.00000000
     atom    7 type  3   force =    -0.00185284    0.00185284   -0.00000000
     atom    8 type  3   force =     0.00185284    0.00185284   -0.00000000
     atom    9 type  3   force =     0.00185284    0.00185284    0.00000000
     atom   10 type  3   force =    -0.00185284    0.00185284    0.00000000
     atom   11 type  3   force =     0.00185284   -0.00185284   -0.00000000
     atom   12 type  3   force =     0.00185284   -0.00185284    0.00000000
     atom   13 type  3   force =    -0.00185284   -0.00185284   -0.00000000
     atom   14 type  3   force =    -0.00185284   -0.00185284    0.00000000
     atom   15 type  3   force =     0.00000000    0.00000000    0.00000000
     atom   16 type  3   force =     0.00000000    0.00000000   -0.00000000
     atom   17 type  1   force =    -0.09861139   -0.04418327    0.03701804
     atom   18 type  1   force =     0.09861139   -0.04418327   -0.03701804
     atom   19 type  1   force =     0.04418327    0.09861139   -0.03701804
     atom   20 type  1   force =     0.09861139   -0.04418327    0.03701804
     atom   21 type  1   force =     0.04418327    0.09861139    0.03701804
     atom   22 type  1   force =     0.09861139    0.04418327    0.03701804
     atom   23 type  1   force =    -0.04418327    0.09861139    0.03701804
     atom   24 type  1   force =     0.09861139    0.04418327   -0.03701804
     atom   25 type  1   force =    -0.04418327    0.09861139   -0.03701804
     atom   26 type  1   force =     0.04418327   -0.09861139    0.03701804
     atom   27 type  1   force =    -0.09861139   -0.04418327   -0.03701804
     atom   28 type  1   force =     0.04418327   -0.09861139   -0.03701804
     atom   29 type  1   force =    -0.09861139    0.04418327   -0.03701804
     atom   30 type  1   force =    -0.04418327   -0.09861139   -0.03701804
     atom   31 type  1   force =    -0.09861139    0.04418327    0.03701804
     atom   32 type  1   force =    -0.04418327   -0.09861139    0.03701804
     atom   33 type  1   force =    -0.02384402    0.00479508   -0.00000000
     atom   34 type  1   force =     0.02384402    0.00479508    0.00000000
     atom   35 type  1   force =    -0.00479508    0.02384402    0.00000000
     atom   36 type  1   force =     0.02384402   -0.00479508   -0.00000000
     atom   37 type  1   force =     0.00479508    0.02384402   -0.00000000
     atom   38 type  1   force =    -0.00479508   -0.02384402   -0.00000000
     atom   39 type  1   force =    -0.02384402   -0.00479508    0.00000000
     atom   40 type  1   force =     0.00479508   -0.02384402    0.00000000
     atom   41 type  1   force =     0.00000000    0.00000000   -0.09666695
     atom   42 type  1   force =     0.00000000    0.00000000    0.09666695
     atom   43 type  1   force =     0.00000000    0.00000000   -0.09666695
     atom   44 type  1   force =     0.00000000    0.00000000    0.09666695
     The core correction contribution to forces
     atom    1 type  2   force =    -0.00000000   -0.00000000    0.00000000
     atom    2 type  2   force =    -0.00000000    0.00000000   -0.00000000
     atom    3 type  2   force =    -0.00000000   -0.00000000   -0.00000000
     atom    4 type  2   force =    -0.00000000    0.00000000    0.00000000
     atom    5 type  2   force =     0.00000000    0.00000000    0.00000000
     atom    6 type  2   force =    -0.00000000   -0.00000000   -0.00000000
     atom    7 type  3   force =    -0.00045777    0.00045777    0.00000000
     atom    8 type  3   force =     0.00045777    0.00045777    0.00000000
     atom    9 type  3   force =     0.00045777    0.00045777   -0.00000000
     atom   10 type  3   force =    -0.00045777    0.00045777   -0.00000000
     atom   11 type  3   force =     0.00045777   -0.00045777    0.00000000
     atom   12 type  3   force =     0.00045777   -0.00045777   -0.00000000
     atom   13 type  3   force =    -0.00045777   -0.00045777    0.00000000
     atom   14 type  3   force =    -0.00045777   -0.00045777   -0.00000000
     atom   15 type  3   force =     0.00000000   -0.00000000   -0.00000000
     atom   16 type  3   force =    -0.00000000   -0.00000000    0.00000000
     atom   17 type  1   force =     0.00000000    0.00000000    0.00000000
     atom   18 type  1   force =     0.00000000    0.00000000    0.00000000
     atom   19 type  1   force =     0.00000000    0.00000000    0.00000000
     atom   20 type  1   force =     0.00000000    0.00000000    0.00000000
     atom   21 type  1   force =     0.00000000    0.00000000    0.00000000
     atom   22 type  1   force =     0.00000000    0.00000000    0.00000000
     atom   23 type  1   force =     0.00000000    0.00000000    0.00000000
     atom   24 type  1   force =     0.00000000    0.00000000    0.00000000
     atom   25 type  1   force =     0.00000000    0.00000000    0.00000000
     atom   26 type  1   force =     0.00000000    0.00000000    0.00000000
     atom   27 type  1   force =     0.00000000    0.00000000    0.00000000
     atom   28 type  1   force =     0.00000000    0.00000000    0.00000000
     atom   29 type  1   force =     0.00000000    0.00000000    0.00000000
     atom   30 type  1   force =     0.00000000    0.00000000    0.00000000
     atom   31 type  1   force =     0.00000000    0.00000000    0.00000000
     atom   32 type  1   force =     0.00000000    0.00000000    0.00000000
     atom   33 type  1   force =     0.00000000    0.00000000    0.00000000
     atom   34 type  1   force =     0.00000000    0.00000000    0.00000000
     atom   35 type  1   force =     0.00000000    0.00000000    0.00000000
     atom   36 type  1   force =     0.00000000    0.00000000    0.00000000
     atom   37 type  1   force =     0.00000000    0.00000000    0.00000000
     atom   38 type  1   force =     0.00000000    0.00000000    0.00000000
     atom   39 type  1   force =     0.00000000    0.00000000    0.00000000
     atom   40 type  1   force =     0.00000000    0.00000000    0.00000000
     atom   41 type  1   force =     0.00000000    0.00000000    0.00000000
     atom   42 type  1   force =     0.00000000    0.00000000    0.00000000
     atom   43 type  1   force =     0.00000000    0.00000000    0.00000000
     atom   44 type  1   force =     0.00000000    0.00000000    0.00000000
     The Hubbard contrib.    to forces
     atom    1 type  2   force =     0.00000000    0.00000000    0.00000000
     atom    2 type  2   force =     0.00000000    0.00000000    0.00000000
     atom    3 type  2   force =     0.00000000    0.00000000    0.00000000
     atom    4 type  2   force =     0.00000000    0.00000000    0.00000000
     atom    5 type  2   force =     0.00000000    0.00000000    0.00000000
     atom    6 type  2   force =     0.00000000    0.00000000    0.00000000
     atom    7 type  3   force =     0.00000000    0.00000000    0.00000000
     atom    8 type  3   force =     0.00000000    0.00000000    0.00000000
     atom    9 type  3   force =     0.00000000    0.00000000    0.00000000
     atom   10 type  3   force =     0.00000000    0.00000000    0.00000000
     atom   11 type  3   force =     0.00000000    0.00000000    0.00000000
     atom   12 type  3   force =     0.00000000    0.00000000    0.00000000
     atom   13 type  3   force =     0.00000000    0.00000000    0.00000000
     atom   14 type  3   force =     0.00000000    0.00000000    0.00000000
     atom   15 type  3   force =     0.00000000    0.00000000    0.00000000
     atom   16 type  3   force =     0.00000000    0.00000000    0.00000000
     atom   17 type  1   force =     0.00000000    0.00000000    0.00000000
     atom   18 type  1   force =     0.00000000    0.00000000    0.00000000
     atom   19 type  1   force =     0.00000000    0.00000000    0.00000000
     atom   20 type  1   force =     0.00000000    0.00000000    0.00000000
     atom   21 type  1   force =     0.00000000    0.00000000    0.00000000
     atom   22 type  1   force =     0.00000000    0.00000000    0.00000000
     atom   23 type  1   force =     0.00000000    0.00000000    0.00000000
     atom   24 type  1   force =     0.00000000    0.00000000    0.00000000
     atom   25 type  1   force =     0.00000000    0.00000000    0.00000000
     atom   26 type  1   force =     0.00000000    0.00000000    0.00000000
     atom   27 type  1   force =     0.00000000    0.00000000    0.00000000
     atom   28 type  1   force =     0.00000000    0.00000000    0.00000000
     atom   29 type  1   force =     0.00000000    0.00000000    0.00000000
     atom   30 type  1   force =     0.00000000    0.00000000    0.00000000
     atom   31 type  1   force =     0.00000000    0.00000000    0.00000000
     atom   32 type  1   force =     0.00000000    0.00000000    0.00000000
     atom   33 type  1   force =     0.00000000    0.00000000    0.00000000
     atom   34 type  1   force =     0.00000000    0.00000000    0.00000000
     atom   35 type  1   force =     0.00000000    0.00000000    0.00000000
     atom   36 type  1   force =     0.00000000    0.00000000    0.00000000
     atom   37 type  1   force =     0.00000000    0.00000000    0.00000000
     atom   38 type  1   force =     0.00000000    0.00000000    0.00000000
     atom   39 type  1   force =     0.00000000    0.00000000    0.00000000
     atom   40 type  1   force =     0.00000000    0.00000000    0.00000000
     atom   41 type  1   force =     0.00000000    0.00000000    0.00000000
     atom   42 type  1   force =     0.00000000    0.00000000    0.00000000
     atom   43 type  1   force =     0.00000000    0.00000000    0.00000000
     atom   44 type  1   force =     0.00000000    0.00000000    0.00000000
     The SCF correction term to forces
     atom    1 type  2   force =    -0.00000000   -0.00000000    0.00000000
     atom    2 type  2   force =     0.00000000    0.00000000   -0.00000000
     atom    3 type  2   force =    -0.00000000   -0.00000000    0.00000000
     atom    4 type  2   force =    -0.00000000   -0.00000000    0.00000000
     atom    5 type  2   force =    -0.00000000   -0.00000000    0.00000000
     atom    6 type  2   force =     0.00000000   -0.00000000   -0.00000000
     atom    7 type  3   force =     0.00000005   -0.00000005    0.00000000
     atom    8 type  3   force =    -0.00000005   -0.00000005    0.00000000
     atom    9 type  3   force =    -0.00000005   -0.00000005   -0.00000000
     atom   10 type  3   force =     0.00000005   -0.00000005   -0.00000000
     atom   11 type  3   force =    -0.00000005    0.00000005    0.00000000
     atom   12 type  3   force =    -0.00000005    0.00000005   -0.00000000
     atom   13 type  3   force =     0.00000005    0.00000005    0.00000000
     atom   14 type  3   force =     0.00000005    0.00000005   -0.00000000
     atom   15 type  3   force =    -0.00000000    0.00000000   -0.00000000
     atom   16 type  3   force =     0.00000000   -0.00000000    0.00000000
     atom   17 type  1   force =     0.00000000   -0.00000005   -0.00000016
     atom   18 type  1   force =    -0.00000000   -0.00000005    0.00000016
     atom   19 type  1   force =     0.00000005   -0.00000000    0.00000016
     atom   20 type  1   force =    -0.00000000   -0.00000005   -0.00000016
     atom   21 type  1   force =     0.00000005   -0.00000000   -0.00000016
     atom   22 type  1   force =    -0.00000000    0.00000005   -0.00000016
     atom   23 type  1   force =    -0.00000005   -0.00000000   -0.00000016
     atom   24 type  1   force =    -0.00000000    0.00000005    0.00000016
     atom   25 type  1   force =    -0.00000005   -0.00000000    0.00000016
     atom   26 type  1   force =     0.00000005    0.00000000   -0.00000016
     atom   27 type  1   force =     0.00000000   -0.00000005    0.00000016
     atom   28 type  1   force =     0.00000005    0.00000000    0.00000016
     atom   29 type  1   force =     0.00000000    0.00000005    0.00000016
     atom   30 type  1   force =    -0.00000005    0.00000000    0.00000016
     atom   31 type  1   force =     0.00000000    0.00000005   -0.00000016
     atom   32 type  1   force =    -0.00000005    0.00000000   -0.00000016
     atom   33 type  1   force =     0.00000001    0.00000027    0.00000000
     atom   34 type  1   force =    -0.00000001    0.00000027    0.00000000
     atom   35 type  1   force =    -0.00000027   -0.00000001   -0.00000000
     atom   36 type  1   force =    -0.00000001   -0.00000027    0.00000000
     atom   37 type  1   force =     0.00000027   -0.00000001    0.00000000
     atom   38 type  1   force =    -0.00000027    0.00000001    0.00000000
     atom   39 type  1   force =     0.00000001   -0.00000027    0.00000000
     atom   40 type  1   force =     0.00000027    0.00000001    0.00000000
     atom   41 type  1   force =     0.00000000    0.00000000    0.00000046
     atom   42 type  1   force =     0.00000000   -0.00000000   -0.00000046
     atom   43 type  1   force =    -0.00000000    0.00000000    0.00000046
     atom   44 type  1   force =    -0.00000000   -0.00000000   -0.00000046

     Total force =     0.001381     Total SCF correction =     0.000001


     Computing stress (Cartesian axis) and pressure

          total   stress  (Ry/bohr**3)                   (kbar)     P=        0.18
   0.00000031   0.00000000   0.00000000            0.05        0.00        0.00
   0.00000000   0.00000031   0.00000000            0.00        0.05        0.00
   0.00000000   0.00000000   0.00000311            0.00        0.00        0.46

     kinetic stress (kbar)   2968.15      0.00      0.00
                                0.00   2968.15      0.00
                                0.00      0.00   2994.41

     local   stress (kbar)  -2936.63     -0.00     -0.00
                               -0.00  -2936.63     -0.00
                               -0.00     -0.00  -2633.48

     nonloc. stress (kbar)   4208.04      0.00      0.00
                                0.00   4208.04      0.00
                                0.00      0.00   4216.63

     hartree stress (kbar)    651.14     -0.00     -0.00
                               -0.00    651.14      0.00
                               -0.00      0.00    524.66

     exc-cor stress (kbar)   5736.38     -0.00      0.00
                               -0.00   5736.38     -0.00
                                0.00     -0.00   5737.59

     corecor stress (kbar)  -7024.11     -0.00      0.00
                               -0.00  -7024.11      0.00
                                0.00      0.00  -7027.02

     ewald   stress (kbar)  -3602.93     -0.00     -0.00
                               -0.00  -3602.93     -0.00
                               -0.00     -0.00  -3812.34

     hubbard stress (kbar)      0.00      0.00      0.00
                                0.00      0.00      0.00
                                0.00      0.00      0.00

     DFT-D   stress (kbar)      0.00      0.00      0.00
                                0.00      0.00      0.00
                                0.00      0.00      0.00

     XDM     stress (kbar)      0.00      0.00      0.00
                                0.00      0.00      0.00
                                0.00      0.00      0.00

     dft-nl  stress (kbar)      0.00      0.00      0.00
                                0.00      0.00      0.00
                                0.00      0.00      0.00

     TS-vdW  stress (kbar)      0.00      0.00      0.00
                                0.00      0.00      0.00
                                0.00      0.00      0.00

     MDB     stress (kbar)      0.00      0.00      0.00
                                0.00      0.00      0.00
                                0.00      0.00      0.00

     3D-RISM stress (kbar)      0.00      0.00      0.00
                                0.00      0.00      0.00
                                0.00      0.00      0.00


     Writing all to output data dir ./Cs5Al3H14.save/
 
     init_run     :     32.71s CPU     33.40s WALL (       2 calls)
     electrons    :   6079.09s CPU   6189.53s WALL (      33 calls)
     update_pot   :     75.17s CPU     76.09s WALL (      31 calls)
     forces       :    141.39s CPU    145.07s WALL (      33 calls)
     stress       :    892.29s CPU    901.38s WALL (      33 calls)

     Called by init_run:
     wfcinit      :     26.94s CPU     27.36s WALL (       2 calls)
     wfcinit:atom :      0.42s CPU      0.43s WALL (      80 calls)
     wfcinit:wfcr :     24.95s CPU     25.25s WALL (      80 calls)
     potinit      :      2.20s CPU      2.23s WALL (       2 calls)
     hinit0       :      2.72s CPU      2.75s WALL (       2 calls)

     Called by electrons:
     c_bands      :   5379.50s CPU   5451.04s WALL (     297 calls)
     sum_band     :    572.01s CPU    589.94s WALL (     297 calls)
     v_of_rho     :      8.73s CPU      8.84s WALL (     328 calls)
     v_h          :      0.48s CPU      0.50s WALL (     328 calls)
     v_xc         :      9.90s CPU     10.01s WALL (     394 calls)
     newd         :     35.32s CPU     43.34s WALL (     328 calls)
     PAW_pot      :    101.50s CPU    102.52s WALL (     359 calls)
     mix_rho      :      2.01s CPU      2.06s WALL (     297 calls)

     Called by c_bands:
     init_us_2    :    107.28s CPU    108.59s WALL (   27720 calls)
     init_us_2:cp :    107.04s CPU    108.45s WALL (   27720 calls)
     cegterg      :   4953.91s CPU   5010.95s WALL (   11888 calls)

     Called by sum_band:
     sum_band:wei :      0.21s CPU      0.21s WALL (     297 calls)
     sum_band:loo :    530.88s CPU    538.01s WALL (     297 calls)
     sum_band:buf :     12.93s CPU     13.12s WALL (   11880 calls)
     sum_band:ini :     46.42s CPU     46.91s WALL (   11880 calls)
     sum_band:cal :    132.78s CPU    133.53s WALL (   13120 calls)
     sum_band:bec :      3.45s CPU      3.48s WALL (   13120 calls)
     addusdens    :     38.96s CPU     49.69s WALL (     297 calls)
     addusd:skk   :      0.78s CPU      1.88s WALL (     891 calls)
     addusd:dgemm :     11.01s CPU     20.01s WALL (     891 calls)
     addusd:qvan2 :     25.24s CPU     25.39s WALL (     891 calls)

     Called by *egterg:
     cdiaghg      :    583.39s CPU    586.47s WALL (   68506 calls)
     cegterg:over :    306.33s CPU    308.85s WALL (   57946 calls)
     cegterg:upda :    176.64s CPU    178.32s WALL (   57946 calls)
     cegterg:last :    352.21s CPU    354.56s WALL (   31988 calls)
     h_psi        :   2955.09s CPU   2997.81s WALL (   69914 calls)
     s_psi        :    437.16s CPU    440.36s WALL (   69914 calls)
     g_psi        :     23.55s CPU     23.79s WALL (   57946 calls)

     Called by h_psi:
     h_psi:calbec :    433.47s CPU    436.65s WALL (   69914 calls)
     vloc_psi     :   2060.37s CPU   2096.31s WALL (   69914 calls)
     add_vuspsi   :    430.63s CPU    433.61s WALL (   69914 calls)

     General routines
     calbec       :    643.49s CPU    648.01s WALL (   89634 calls)
     fft          :      6.00s CPU      6.10s WALL (    5056 calls)
     ffts         :      0.43s CPU      0.44s WALL (     625 calls)
     fftw         :   2107.52s CPU   2143.30s WALL ( 7119044 calls)
     interpolate  :      0.73s CPU      0.74s WALL (     328 calls)
 
     Parallel routines

     PAW routines
     PAW_pot      :    101.50s CPU    102.52s WALL (     359 calls)
     PAW_symme    :      0.27s CPU      0.27s WALL (     656 calls)
 
     PWSCF        :      2h 0m CPU      2h 3m WALL

 
   This run was terminated on:  13:29: 3  30Nov2023            

=------------------------------------------------------------------------------=
   JOB DONE.
=------------------------------------------------------------------------------=
