
     Program PWSCF v.6.7MaX starts on 26Nov2023 at 18:19: 5 

     This program is part of the open-source Quantum ESPRESSO suite
     for quantum simulation of materials; please cite
         "P. Giannozzi et al., J. Phys.:Condens. Matter 21 395502 (2009);
         "P. Giannozzi et al., J. Phys.:Condens. Matter 29 465901 (2017);
          URL http://www.quantum-espresso.org", 
     in publications or presentations arising from this work. More details at
     http://www.quantum-espresso.org/quote

     Parallel version (MPI), running on     8 processors

     MPI processes distributed on     1 nodes
     R & G space division:  proc/nbgrp/npool/nimage =       8
     Reading input from optgeo.in

     Current dimensions of program PWSCF are:
     Max number of different atomic species (ntypx) = 10
     Max number of k-points (npk) =  40000
     Max angular momentum in pseudopotentials (lmaxx) =  3
     file Al.pbe-n-kjpaw_psl.1.0.0.UPF: wavefunction(s)  3S 3P renormalized

     IMPORTANT: XC functional enforced from input :
     Exchange-correlation= PBE
                           (   1   4   3   4   0   0   0)
     Any further DFT definition will be discarded
     Please, verify this is what you really want


     Subspace diagonalization in iterative solution of the eigenvalue problem:
     one sub-group per band group will be used
     scalapack distributed-memory algorithm (size of sub-group:  2*  2 procs)

     Found symmetry operation: I + ( -0.5000 -0.5000 -0.5000)
     This is a supercell, fractional translations are disabled
     Message from routine setup:
     using ibrav=0 with symmetry is DISCOURAGED, use correct ibrav instead

     Parallelization info
     --------------------
     sticks:   dense  smooth     PW     G-vecs:    dense   smooth      PW
     Min         425     341     93                48206    34499    4895
     Max         427     342     94                48213    34510    4904
     Sum        3405    2733    749               385669   276035   39203



     bravais-lattice index     =            0
     lattice parameter (alat)  =      10.3643  a.u.
     unit-cell volume          =    2855.0919 (a.u.)^3
     number of atoms/cell      =           24
     number of atomic types    =            3
     number of electrons       =        64.00
     number of Kohn-Sham states=           38
     kinetic-energy cutoff     =      80.0000  Ry
     charge density cutoff     =     400.0000  Ry
     scf convergence threshold =      1.0E-08
     mixing beta               =       0.7000
     number of iterations used =            8  plain     mixing
     energy convergence thresh.=      1.0E-04
     force convergence thresh. =      1.0E-03
     press convergence thresh. =      5.0E-01
     Exchange-correlation= PBE
                           (   1   4   3   4   0   0   0)
     nstep                     =           50


     celldm(1)=  10.364317  celldm(2)=   0.000000  celldm(3)=   0.000000
     celldm(4)=   0.000000  celldm(5)=   0.000000  celldm(6)=   0.000000

     crystal axes: (cart. coord. in units of alat)
               a(1) = (   1.000000   0.000000   0.000000 )  
               a(2) = (   0.000000   1.000000   0.000000 )  
               a(3) = (   0.000000   0.000000   2.564472 )  

     reciprocal axes: (cart. coord. in units 2 pi/alat)
               b(1) = (  1.000000  0.000000  0.000000 )  
               b(2) = (  0.000000  1.000000  0.000000 )  
               b(3) = (  0.000000  0.000000  0.389944 )  


     PseudoPot. # 1 for H  read from file:
     /home/thibautdhomme/PseudoLib/H.pbe-rrkjus_psl.1.0.0.UPF
     MD5 check sum: f52b6d4d1c606e5624b1dc7b2218f220
     Pseudo is Ultrasoft, Zval =  1.0
     Generated using "atomic" code by A. Dal Corso  v.5.1
     Using radial grid of  929 points,  2 beta functions with: 
                l(1) =   0
                l(2) =   0
     Q(r) pseudized with 0 coefficients 


     PseudoPot. # 2 for Al read from file:
     /home/thibautdhomme/PseudoLib/Al.pbe-n-kjpaw_psl.1.0.0.UPF
     MD5 check sum: cfc449ca30b5f3223ec38ddd88ac046d
     Pseudo is Projector augmented-wave + core cor, Zval =  3.0
     Generated using "atomic" code by A. Dal Corso  v.5.1
     Shape of augmentation charge: PSQ
     Using radial grid of 1135 points,  6 beta functions with: 
                l(1) =   0
                l(2) =   0
                l(3) =   1
                l(4) =   1
                l(5) =   2
                l(6) =   2
     Q(r) pseudized with 0 coefficients 


     PseudoPot. # 3 for Cs read from file:
     /home/thibautdhomme/PseudoLib/Cs_pbe_v1.uspp.F.UPF
     MD5 check sum: 3476d69cb178dfad3ffaa59df4e07ca4
     Pseudo is Ultrasoft + core correction, Zval =  9.0
     Generated by new atomic code, or converted to UPF format
     Using radial grid of  905 points,  6 beta functions with: 
                l(1) =   0
                l(2) =   0
                l(3) =   1
                l(4) =   1
                l(5) =   2
                l(6) =   2
     Q(r) pseudized with  6 coefficients,  rinner =    1.500   1.500   1.500
                                                       1.500   1.500

     atomic species   valence    mass     pseudopotential
        H              1.00     1.00750     H ( 1.00)
        Al             3.00    26.98100     Al( 1.00)
        Cs             9.00   132.90500     Cs( 1.00)

      8 Sym. Ops. (no inversion) found


                                    s                        frac. trans.

      isym =  1     identity                                     

 cryst.   s( 1) = (     1          0          0      )
                  (     0          1          0      )
                  (     0          0          1      )

 cart.    s( 1) = (  1.0000000  0.0000000  0.0000000 )
                  (  0.0000000  1.0000000  0.0000000 )
                  (  0.0000000  0.0000000  1.0000000 )


      isym =  2     180 deg rotation - cart. axis [0,0,1]        

 cryst.   s( 2) = (    -1          0          0      )
                  (     0         -1          0      )
                  (     0          0          1      )

 cart.    s( 2) = ( -1.0000000  0.0000000  0.0000000 )
                  (  0.0000000 -1.0000000  0.0000000 )
                  (  0.0000000  0.0000000  1.0000000 )


      isym =  3     180 deg rotation - cart. axis [1,1,0]        

 cryst.   s( 3) = (     0          1          0      )
                  (     1          0          0      )
                  (     0          0         -1      )

 cart.    s( 3) = (  0.0000000  1.0000000  0.0000000 )
                  (  1.0000000  0.0000000  0.0000000 )
                  (  0.0000000  0.0000000 -1.0000000 )


      isym =  4     180 deg rotation - cart. axis [1,-1,0]       

 cryst.   s( 4) = (     0         -1          0      )
                  (    -1          0          0      )
                  (     0          0         -1      )

 cart.    s( 4) = (  0.0000000 -1.0000000  0.0000000 )
                  ( -1.0000000  0.0000000  0.0000000 )
                  (  0.0000000  0.0000000 -1.0000000 )


      isym =  5     inv. 180 deg rotation - cart. axis [0,1,0]   

 cryst.   s( 5) = (     1          0          0      )
                  (     0         -1          0      )
                  (     0          0          1      )

 cart.    s( 5) = (  1.0000000  0.0000000  0.0000000 )
                  (  0.0000000 -1.0000000  0.0000000 )
                  (  0.0000000  0.0000000  1.0000000 )


      isym =  6     inv. 180 deg rotation - cart. axis [1,0,0]   

 cryst.   s( 6) = (    -1          0          0      )
                  (     0          1          0      )
                  (     0          0          1      )

 cart.    s( 6) = ( -1.0000000  0.0000000  0.0000000 )
                  (  0.0000000  1.0000000  0.0000000 )
                  (  0.0000000  0.0000000  1.0000000 )


      isym =  7     inv.  90 deg rotation - cart. axis [0,0,-1]  

 cryst.   s( 7) = (     0          1          0      )
                  (    -1          0          0      )
                  (     0          0         -1      )

 cart.    s( 7) = (  0.0000000 -1.0000000  0.0000000 )
                  (  1.0000000  0.0000000  0.0000000 )
                  (  0.0000000  0.0000000 -1.0000000 )


      isym =  8     inv.  90 deg rotation - cart. axis [0,0,1]   

 cryst.   s( 8) = (     0         -1          0      )
                  (     1          0          0      )
                  (     0          0         -1      )

 cart.    s( 8) = (  0.0000000  1.0000000  0.0000000 )
                  ( -1.0000000  0.0000000  0.0000000 )
                  (  0.0000000  0.0000000 -1.0000000 )


   Cartesian axes

     site n.     atom                  positions (alat units)
         1           Al  tau(   1) = (   0.0000000   0.0000000   0.0000000  )
         2           Al  tau(   2) = (   0.0000000   0.5000000   0.6411181  )
         3           Al  tau(   3) = (   0.5000000   0.5000000   1.2822361  )
         4           Al  tau(   4) = (   0.5000000   0.0000000   1.9233542  )
         5           Cs  tau(   5) = (   0.5000000   0.5000000   0.0000000  )
         6           Cs  tau(   6) = (   0.5000000   0.0000000   0.6411181  )
         7           Cs  tau(   7) = (   0.0000000   0.0000000   1.2822361  )
         8           Cs  tau(   8) = (   0.0000000   0.5000000   1.9233542  )
         9           H   tau(   9) = (   0.2462658   0.0000000   0.1667318  )
        10           H   tau(  10) = (   0.7537342   0.0000000   0.1667318  )
        11           H   tau(  11) = (   0.2462658   0.5000000   0.4743863  )
        12           H   tau(  12) = (   0.7537342   0.5000000   0.4743863  )
        13           H   tau(  13) = (   0.0000000   0.2537342   0.8078499  )
        14           H   tau(  14) = (   0.0000000   0.7462658   0.8078499  )
        15           H   tau(  15) = (   0.5000000   0.2537342   1.1155043  )
        16           H   tau(  16) = (   0.5000000   0.7462658   1.1155043  )
        17           H   tau(  17) = (   0.2537342   0.5000000   1.4489680  )
        18           H   tau(  18) = (   0.7462658   0.5000000   1.4489680  )
        19           H   tau(  19) = (   0.2537342   0.0000000   1.7566224  )
        20           H   tau(  20) = (   0.7462658   0.0000000   1.7566224  )
        21           H   tau(  21) = (   0.5000000   0.2462658   2.0900860  )
        22           H   tau(  22) = (   0.5000000   0.7537342   2.0900860  )
        23           H   tau(  23) = (   0.0000000   0.2462658   2.3977405  )
        24           H   tau(  24) = (   0.0000000   0.7537342   2.3977405  )

   Crystallographic axes

     site n.     atom                  positions (cryst. coord.)
         1           Al  tau(   1) = (  0.0000000  0.0000000  0.0000000  )
         2           Al  tau(   2) = (  0.0000000  0.5000000  0.2500000  )
         3           Al  tau(   3) = (  0.5000000  0.5000000  0.5000000  )
         4           Al  tau(   4) = (  0.5000000  0.0000000  0.7500000  )
         5           Cs  tau(   5) = (  0.5000000  0.5000000  0.0000000  )
         6           Cs  tau(   6) = (  0.5000000  0.0000000  0.2500000  )
         7           Cs  tau(   7) = (  0.0000000  0.0000000  0.5000000  )
         8           Cs  tau(   8) = (  0.0000000  0.5000000  0.7500000  )
         9           H   tau(   9) = (  0.2462658  0.0000000  0.0650160  )
        10           H   tau(  10) = (  0.7537342  0.0000000  0.0650160  )
        11           H   tau(  11) = (  0.2462658  0.5000000  0.1849840  )
        12           H   tau(  12) = (  0.7537342  0.5000000  0.1849840  )
        13           H   tau(  13) = (  0.0000000  0.2537342  0.3150160  )
        14           H   tau(  14) = (  0.0000000  0.7462658  0.3150160  )
        15           H   tau(  15) = (  0.5000000  0.2537342  0.4349840  )
        16           H   tau(  16) = (  0.5000000  0.7462658  0.4349840  )
        17           H   tau(  17) = (  0.2537342  0.5000000  0.5650160  )
        18           H   tau(  18) = (  0.7462658  0.5000000  0.5650160  )
        19           H   tau(  19) = (  0.2537342  0.0000000  0.6849840  )
        20           H   tau(  20) = (  0.7462658  0.0000000  0.6849840  )
        21           H   tau(  21) = (  0.5000000  0.2462658  0.8150160  )
        22           H   tau(  22) = (  0.5000000  0.7537342  0.8150160  )
        23           H   tau(  23) = (  0.0000000  0.2462658  0.9349840  )
        24           H   tau(  24) = (  0.0000000  0.7537342  0.9349840  )

     number of k points=    40  Marzari-Vanderbilt smearing, width (Ry)=  0.0050
                       cart. coord. in units 2pi/alat
        k(    1) = (   0.0000000   0.0000000   0.0000000), wk =   0.0058309
        k(    2) = (   0.0000000   0.0000000   0.0557063), wk =   0.0116618
        k(    3) = (   0.0000000   0.0000000   0.1114125), wk =   0.0116618
        k(    4) = (   0.0000000   0.0000000   0.1671188), wk =   0.0116618
        k(    5) = (   0.0000000   0.1428571   0.0000000), wk =   0.0233236
        k(    6) = (   0.0000000   0.1428571   0.0557063), wk =   0.0466472
        k(    7) = (   0.0000000   0.1428571   0.1114125), wk =   0.0466472
        k(    8) = (   0.0000000   0.1428571   0.1671188), wk =   0.0466472
        k(    9) = (   0.0000000   0.2857143   0.0000000), wk =   0.0233236
        k(   10) = (   0.0000000   0.2857143   0.0557063), wk =   0.0466472
        k(   11) = (   0.0000000   0.2857143   0.1114125), wk =   0.0466472
        k(   12) = (   0.0000000   0.2857143   0.1671188), wk =   0.0466472
        k(   13) = (   0.0000000   0.4285714   0.0000000), wk =   0.0233236
        k(   14) = (   0.0000000   0.4285714   0.0557063), wk =   0.0466472
        k(   15) = (   0.0000000   0.4285714   0.1114125), wk =   0.0466472
        k(   16) = (   0.0000000   0.4285714   0.1671188), wk =   0.0466472
        k(   17) = (   0.1428571   0.1428571   0.0000000), wk =   0.0233236
        k(   18) = (   0.1428571   0.1428571   0.0557063), wk =   0.0466472
        k(   19) = (   0.1428571   0.1428571   0.1114125), wk =   0.0466472
        k(   20) = (   0.1428571   0.1428571   0.1671188), wk =   0.0466472
        k(   21) = (   0.1428571   0.2857143   0.0000000), wk =   0.0466472
        k(   22) = (   0.1428571   0.2857143   0.0557063), wk =   0.0932945
        k(   23) = (   0.1428571   0.2857143   0.1114125), wk =   0.0932945
        k(   24) = (   0.1428571   0.2857143   0.1671188), wk =   0.0932945
        k(   25) = (   0.1428571   0.4285714   0.0000000), wk =   0.0466472
        k(   26) = (   0.1428571   0.4285714   0.0557063), wk =   0.0932945
        k(   27) = (   0.1428571   0.4285714   0.1114125), wk =   0.0932945
        k(   28) = (   0.1428571   0.4285714   0.1671188), wk =   0.0932945
        k(   29) = (   0.2857143   0.2857143   0.0000000), wk =   0.0233236
        k(   30) = (   0.2857143   0.2857143   0.0557063), wk =   0.0466472
        k(   31) = (   0.2857143   0.2857143   0.1114125), wk =   0.0466472
        k(   32) = (   0.2857143   0.2857143   0.1671188), wk =   0.0466472
        k(   33) = (   0.2857143   0.4285714   0.0000000), wk =   0.0466472
        k(   34) = (   0.2857143   0.4285714   0.0557063), wk =   0.0932945
        k(   35) = (   0.2857143   0.4285714   0.1114125), wk =   0.0932945
        k(   36) = (   0.2857143   0.4285714   0.1671188), wk =   0.0932945
        k(   37) = (   0.4285714   0.4285714   0.0000000), wk =   0.0233236
        k(   38) = (   0.4285714   0.4285714   0.0557063), wk =   0.0466472
        k(   39) = (   0.4285714   0.4285714   0.1114125), wk =   0.0466472
        k(   40) = (   0.4285714   0.4285714   0.1671188), wk =   0.0466472

                       cryst. coord.
        k(    1) = (   0.0000000   0.0000000   0.0000000), wk =   0.0058309
        k(    2) = (   0.0000000   0.0000000   0.1428571), wk =   0.0116618
        k(    3) = (   0.0000000   0.0000000   0.2857143), wk =   0.0116618
        k(    4) = (   0.0000000   0.0000000   0.4285714), wk =   0.0116618
        k(    5) = (   0.0000000   0.1428571   0.0000000), wk =   0.0233236
        k(    6) = (   0.0000000   0.1428571   0.1428571), wk =   0.0466472
        k(    7) = (   0.0000000   0.1428571   0.2857143), wk =   0.0466472
        k(    8) = (   0.0000000   0.1428571   0.4285714), wk =   0.0466472
        k(    9) = (   0.0000000   0.2857143   0.0000000), wk =   0.0233236
        k(   10) = (   0.0000000   0.2857143   0.1428571), wk =   0.0466472
        k(   11) = (   0.0000000   0.2857143   0.2857143), wk =   0.0466472
        k(   12) = (   0.0000000   0.2857143   0.4285714), wk =   0.0466472
        k(   13) = (   0.0000000   0.4285714   0.0000000), wk =   0.0233236
        k(   14) = (   0.0000000   0.4285714   0.1428571), wk =   0.0466472
        k(   15) = (   0.0000000   0.4285714   0.2857143), wk =   0.0466472
        k(   16) = (   0.0000000   0.4285714   0.4285714), wk =   0.0466472
        k(   17) = (   0.1428571   0.1428571   0.0000000), wk =   0.0233236
        k(   18) = (   0.1428571   0.1428571   0.1428571), wk =   0.0466472
        k(   19) = (   0.1428571   0.1428571   0.2857143), wk =   0.0466472
        k(   20) = (   0.1428571   0.1428571   0.4285714), wk =   0.0466472
        k(   21) = (   0.1428571   0.2857143   0.0000000), wk =   0.0466472
        k(   22) = (   0.1428571   0.2857143   0.1428571), wk =   0.0932945
        k(   23) = (   0.1428571   0.2857143   0.2857143), wk =   0.0932945
        k(   24) = (   0.1428571   0.2857143   0.4285714), wk =   0.0932945
        k(   25) = (   0.1428571   0.4285714   0.0000000), wk =   0.0466472
        k(   26) = (   0.1428571   0.4285714   0.1428571), wk =   0.0932945
        k(   27) = (   0.1428571   0.4285714   0.2857143), wk =   0.0932945
        k(   28) = (   0.1428571   0.4285714   0.4285714), wk =   0.0932945
        k(   29) = (   0.2857143   0.2857143   0.0000000), wk =   0.0233236
        k(   30) = (   0.2857143   0.2857143   0.1428571), wk =   0.0466472
        k(   31) = (   0.2857143   0.2857143   0.2857143), wk =   0.0466472
        k(   32) = (   0.2857143   0.2857143   0.4285714), wk =   0.0466472
        k(   33) = (   0.2857143   0.4285714   0.0000000), wk =   0.0466472
        k(   34) = (   0.2857143   0.4285714   0.1428571), wk =   0.0932945
        k(   35) = (   0.2857143   0.4285714   0.2857143), wk =   0.0932945
        k(   36) = (   0.2857143   0.4285714   0.4285714), wk =   0.0932945
        k(   37) = (   0.4285714   0.4285714   0.0000000), wk =   0.0233236
        k(   38) = (   0.4285714   0.4285714   0.1428571), wk =   0.0466472
        k(   39) = (   0.4285714   0.4285714   0.2857143), wk =   0.0466472
        k(   40) = (   0.4285714   0.4285714   0.4285714), wk =   0.0466472

     Dense  grid:   385669 G-vectors     FFT dimensions: (  72,  72, 180)

     Smooth grid:   276035 G-vectors     FFT dimensions: (  60,  60, 160)

     Dynamical RAM for                 wfc:       2.50 MB

     Dynamical RAM for     wfc (w. buffer):     102.51 MB

     Dynamical RAM for           str. fact:       2.21 MB

     Dynamical RAM for           local pot:       0.00 MB

     Dynamical RAM for          nlocal pot:      11.58 MB

     Dynamical RAM for                qrad:       9.63 MB

     Dynamical RAM for          rho,v,vnew:       4.94 MB

     Dynamical RAM for               rhoin:       1.65 MB

     Dynamical RAM for            rho*nmix:      11.77 MB

     Dynamical RAM for           G-vectors:       3.02 MB

     Dynamical RAM for          h,s,v(r/c):       0.07 MB

     Dynamical RAM for          <psi|beta>:       0.10 MB

     Dynamical RAM for                 psi:       5.00 MB

     Dynamical RAM for                hpsi:       5.00 MB

     Dynamical RAM for                spsi:       5.00 MB

     Dynamical RAM for      wfcinit/wfcrot:      11.22 MB

     Dynamical RAM for           addusdens:     148.61 MB

     Dynamical RAM for          addusforce:     171.11 MB

     Dynamical RAM for         addusstress:     147.87 MB

     Estimated static dynamical RAM per process >     154.79 MB

     Estimated max dynamical RAM per process >     325.90 MB

     Estimated total dynamical RAM >       2.55 GB

     Initial potential from superposition of free atoms

     starting charge   63.83315, renormalised to   64.00000
     Starting wfcs are   84 randomized atomic wfcs
     Checking if some PAW data can be deallocated... 
       PAW data deallocated on    6 nodes for type:  2

     total cpu time spent up to now is       36.9 secs

     Self-consistent Calculation

     iteration #  1     ecut=    80.00 Ry     beta= 0.70
     Davidson diagonalization with overlap
     ethr =  1.00E-02,  avg # of iterations =  3.1

     total cpu time spent up to now is       84.0 secs

     total energy              =    -429.16273895 Ry
     estimated scf accuracy    <       1.34744382 Ry

     iteration #  2     ecut=    80.00 Ry     beta= 0.70
     Davidson diagonalization with overlap
     ethr =  2.11E-03,  avg # of iterations =  2.0

     total cpu time spent up to now is      128.1 secs

     total energy              =    -429.30766526 Ry
     estimated scf accuracy    <       0.01457032 Ry

     iteration #  3     ecut=    80.00 Ry     beta= 0.70
     Davidson diagonalization with overlap
     c_bands:  1 eigenvalues not converged
     c_bands:  1 eigenvalues not converged
     c_bands:  1 eigenvalues not converged
     ethr =  2.28E-05,  avg # of iterations = 10.1

     total cpu time spent up to now is      197.0 secs

     total energy              =    -429.31379255 Ry
     estimated scf accuracy    <       0.00107807 Ry

     iteration #  4     ecut=    80.00 Ry     beta= 0.70
     Davidson diagonalization with overlap
     ethr =  1.68E-06,  avg # of iterations =  6.5

     total cpu time spent up to now is      255.9 secs

     total energy              =    -429.31412036 Ry
     estimated scf accuracy    <       0.00007660 Ry

     iteration #  5     ecut=    80.00 Ry     beta= 0.70
     Davidson diagonalization with overlap
     ethr =  1.20E-07,  avg # of iterations =  6.8

     total cpu time spent up to now is      323.0 secs

     total energy              =    -429.31417807 Ry
     estimated scf accuracy    <       0.00001912 Ry

     iteration #  6     ecut=    80.00 Ry     beta= 0.70
     Davidson diagonalization with overlap
     ethr =  2.99E-08,  avg # of iterations =  2.9

     total cpu time spent up to now is      369.7 secs

     total energy              =    -429.31418134 Ry
     estimated scf accuracy    <       0.00000038 Ry

     iteration #  7     ecut=    80.00 Ry     beta= 0.70
     Davidson diagonalization with overlap
     ethr =  5.95E-10,  avg # of iterations =  5.2

     total cpu time spent up to now is      433.4 secs

     total energy              =    -429.31418171 Ry
     estimated scf accuracy    <       0.00000008 Ry

     iteration #  8     ecut=    80.00 Ry     beta= 0.70
     Davidson diagonalization with overlap
     ethr =  1.21E-10,  avg # of iterations =  4.0

     total cpu time spent up to now is      487.7 secs

     End of self-consistent calculation

          k = 0.0000 0.0000 0.0000 ( 34467 PWs)   bands (ev):

   -18.7438 -18.7126 -18.7126 -18.6810  -6.0080  -5.7760  -5.7760  -5.7182
    -5.7182  -5.6081  -5.6081  -5.5810  -5.5810  -5.4642  -5.4642  -5.3635
    -4.0218  -3.4423  -3.4423  -3.2666  -0.3688  -0.3687  -0.2142   0.0189
     0.0189   0.0196   0.0578   0.0578   0.3779   0.3779   0.4427   0.4427
     4.6691   5.4575   5.4575   5.7711   5.8360   5.8360

     occupation numbers 
     1.0000   1.0000   1.0000   1.0000   1.0000   1.0000   1.0000   1.0000
     1.0000   1.0000   1.0000   1.0000   1.0000   1.0000   1.0000   1.0000
     1.0000   1.0000   1.0000   1.0000   1.0000   1.0000   1.0000   1.0000
     1.0000   1.0000   1.0000   1.0000   1.0000   1.0000   1.0000   1.0000
     0.0000   0.0000   0.0000   0.0000   0.0000   0.0000

          k = 0.0000 0.0000 0.0557 ( 34427 PWs)   bands (ev):

   -18.7430 -18.7196 -18.7056 -18.6818  -6.0032  -5.8367  -5.7152  -5.7152
    -5.7079  -5.6255  -5.6255  -5.5632  -5.5632  -5.4676  -5.4676  -5.3793
    -3.9999  -3.5310  -3.3728  -3.2671  -0.3798  -0.3310  -0.2243   0.0025
     0.0207   0.0207   0.0557   0.0557   0.3812   0.3812   0.4396   0.4396
     4.6813   5.2319   5.7149   5.8182   5.8662   5.8662

     occupation numbers 
     1.0000   1.0000   1.0000   1.0000   1.0000   1.0000   1.0000   1.0000
     1.0000   1.0000   1.0000   1.0000   1.0000   1.0000   1.0000   1.0000
     1.0000   1.0000   1.0000   1.0000   1.0000   1.0000   1.0000   1.0000
     1.0000   1.0000   1.0000   1.0000   1.0000   1.0000   1.0000   1.0000
     0.0000   0.0000   0.0000   0.0000   0.0000   0.0000

          k = 0.0000 0.0000 0.1114 ( 34436 PWs)   bands (ev):

   -18.7407 -18.7262 -18.6990 -18.6842  -5.9889  -5.8887  -5.7064  -5.7064
    -5.6503  -5.6503  -5.6344  -5.5375  -5.5375  -5.4773  -5.4773  -5.4229
    -3.9385  -3.6338  -3.3238  -3.2695  -0.3658  -0.2701  -0.2523  -0.0454
     0.0257   0.0257   0.0499   0.0499   0.3905   0.3905   0.4308   0.4308
     4.7201   5.0443   5.9534   5.9553   5.9554   5.9898

     occupation numbers 
     1.0000   1.0000   1.0000   1.0000   1.0000   1.0000   1.0000   1.0000
     1.0000   1.0000   1.0000   1.0000   1.0000   1.0000   1.0000   1.0000
     1.0000   1.0000   1.0000   1.0000   1.0000   1.0000   1.0000   1.0000
     1.0000   1.0000   1.0000   1.0000   1.0000   1.0000   1.0000   1.0000
     0.0000   0.0000   0.0000   0.0000   0.0000   0.0000

          k = 0.0000 0.0000 0.1671 ( 34508 PWs)   bands (ev):

   -18.7370 -18.7321 -18.6930 -18.6880  -5.9650  -5.9316  -5.6921  -5.6921
    -5.6731  -5.6731  -5.5587  -5.5134  -5.5134  -5.4929  -5.4929  -5.4858
    -3.8487  -3.7431  -3.2931  -3.2767  -0.3332  -0.2918  -0.1944  -0.1151
     0.0332   0.0332   0.0418   0.0418   0.4036   0.4036   0.4180   0.4180
     4.7903   4.8973   6.0982   6.0990   6.1469   6.2182

     occupation numbers 
     1.0000   1.0000   1.0000   1.0000   1.0000   1.0000   1.0000   1.0000
     1.0000   1.0000   1.0000   1.0000   1.0000   1.0000   1.0000   1.0000
     1.0000   1.0000   1.0000   1.0000   1.0000   1.0000   1.0000   1.0000
     1.0000   1.0000   1.0000   1.0000   1.0000   1.0000   1.0000   1.0000
     0.0000   0.0000   0.0000   0.0000   0.0000   0.0000

          k = 0.0000 0.1429 0.0000 ( 34479 PWs)   bands (ev):

   -18.7417 -18.7136 -18.7105 -18.6821  -6.0046  -5.8857  -5.7971  -5.7069
    -5.6616  -5.6601  -5.6513  -5.6074  -5.5699  -5.4644  -5.4644  -5.3592
    -3.8700  -3.3766  -3.3587  -3.2081  -0.4611  -0.3153  -0.2467  -0.0704
    -0.0652  -0.0335  -0.0016   0.0425   0.3118   0.3227   0.3795   0.3806
     4.8641   5.5280   5.6400   5.8469   5.9887   6.0165

     occupation numbers 
     1.0000   1.0000   1.0000   1.0000   1.0000   1.0000   1.0000   1.0000
     1.0000   1.0000   1.0000   1.0000   1.0000   1.0000   1.0000   1.0000
     1.0000   1.0000   1.0000   1.0000   1.0000   1.0000   1.0000   1.0000
     1.0000   1.0000   1.0000   1.0000   1.0000   1.0000   1.0000   1.0000
     0.0000   0.0000   0.0000   0.0000   0.0000   0.0000

          k = 0.0000 0.1429 0.0557 ( 34500 PWs)   bands (ev):

   -18.7409 -18.7188 -18.7052 -18.6828  -6.0000  -5.8909  -5.8044  -5.7041
    -5.6965  -5.6387  -5.6210  -5.6170  -5.5559  -5.4678  -5.4675  -5.3707
    -3.8522  -3.4481  -3.3038  -3.2084  -0.4466  -0.3103  -0.2516  -0.1162
    -0.0339  -0.0300   0.0004   0.0400   0.3154   0.3236   0.3746   0.3773
     4.8771   5.4042   5.7199   5.8766   6.0262   6.1148

     occupation numbers 
     1.0000   1.0000   1.0000   1.0000   1.0000   1.0000   1.0000   1.0000
     1.0000   1.0000   1.0000   1.0000   1.0000   1.0000   1.0000   1.0000
     1.0000   1.0000   1.0000   1.0000   1.0000   1.0000   1.0000   1.0000
     1.0000   1.0000   1.0000   1.0000   1.0000   1.0000   1.0000   1.0000
     0.0000   0.0000   0.0000   0.0000   0.0000   0.0000

          k = 0.0000 0.1429 0.1114 ( 34488 PWs)   bands (ev):

   -18.7388 -18.7250 -18.6990 -18.6851  -5.9865  -5.9097  -5.8069  -5.7341
    -5.6958  -5.6433  -5.5930  -5.5815  -5.5328  -5.4767  -5.4760  -5.4025
    -3.8017  -3.5395  -3.2592  -3.2102  -0.4063  -0.2958  -0.2666  -0.1756
    -0.0213  -0.0145   0.0059   0.0333   0.3254   0.3268   0.3619   0.3681
     4.9177   5.2389   5.8178   5.9641   6.1055   6.2585

     occupation numbers 
     1.0000   1.0000   1.0000   1.0000   1.0000   1.0000   1.0000   1.0000
     1.0000   1.0000   1.0000   1.0000   1.0000   1.0000   1.0000   1.0000
     1.0000   1.0000   1.0000   1.0000   1.0000   1.0000   1.0000   1.0000
     1.0000   1.0000   1.0000   1.0000   1.0000   1.0000   1.0000   1.0000
     0.0000   0.0000   0.0000   0.0000   0.0000   0.0000

          k = 0.0000 0.1429 0.1671 ( 34486 PWs)   bands (ev):

   -18.7353 -18.7306 -18.6934 -18.6886  -5.9650  -5.9377  -5.7929  -5.7672
    -5.6823  -5.6644  -5.5545  -5.5533  -5.5105  -5.4913  -5.4773  -5.4456
    -3.7261  -3.6353  -3.2313  -3.2165  -0.3497  -0.2969  -0.2724  -0.2339
    -0.0120  -0.0081   0.0143   0.0240   0.3343   0.3395   0.3467   0.3547
     4.9901   5.0974   5.9322   6.0534   6.1052   6.3759

     occupation numbers 
     1.0000   1.0000   1.0000   1.0000   1.0000   1.0000   1.0000   1.0000
     1.0000   1.0000   1.0000   1.0000   1.0000   1.0000   1.0000   1.0000
     1.0000   1.0000   1.0000   1.0000   1.0000   1.0000   1.0000   1.0000
     1.0000   1.0000   1.0000   1.0000   1.0000   1.0000   1.0000   1.0000
     0.0000   0.0000   0.0000   0.0000   0.0000   0.0000

          k = 0.0000 0.2857 0.0000 ( 34492 PWs)   bands (ev):

   -18.7360 -18.7165 -18.7050 -18.6853  -6.0284  -6.0199  -5.8459  -5.7688
    -5.7376  -5.6783  -5.6425  -5.6089  -5.5414  -5.4680  -5.4519  -5.3642
    -3.5300  -3.2177  -3.1747  -3.0828  -0.7030  -0.5036  -0.2695  -0.2354
    -0.1765  -0.1158  -0.0401   0.0167   0.1165   0.1624   0.2380   0.3851
     5.3460   5.7461   5.9453   6.0313   6.1102   6.5666

     occupation numbers 
     1.0000   1.0000   1.0000   1.0000   1.0000   1.0000   1.0000   1.0000
     1.0000   1.0000   1.0000   1.0000   1.0000   1.0000   1.0000   1.0000
     1.0000   1.0000   1.0000   1.0000   1.0000   1.0000   1.0000   1.0000
     1.0000   1.0000   1.0000   1.0000   1.0000   1.0000   1.0000   1.0000
     0.0000   0.0000   0.0000   0.0000   0.0000   0.0000

          k = 0.0000 0.2857 0.0557 ( 34504 PWs)   bands (ev):

   -18.7354 -18.7187 -18.7028 -18.6859  -6.0227  -6.0134  -5.8625  -5.8140
    -5.6932  -5.6760  -5.6260  -5.6154  -5.5347  -5.4704  -5.4552  -5.3723
    -3.5194  -3.2569  -3.1469  -3.0829  -0.6855  -0.5006  -0.2801  -0.2440
    -0.1807  -0.1343  -0.0378   0.0130   0.1447   0.1670   0.2347   0.3784
     5.3626   5.7536   5.9735   6.0131   6.0336   6.5789

     occupation numbers 
     1.0000   1.0000   1.0000   1.0000   1.0000   1.0000   1.0000   1.0000
     1.0000   1.0000   1.0000   1.0000   1.0000   1.0000   1.0000   1.0000
     1.0000   1.0000   1.0000   1.0000   1.0000   1.0000   1.0000   1.0000
     1.0000   1.0000   1.0000   1.0000   1.0000   1.0000   1.0000   1.0000
     0.0000   0.0000   0.0000   0.0000   0.0000   0.0000

          k = 0.0000 0.2857 0.1114 ( 34527 PWs)   bands (ev):

   -18.7337 -18.7229 -18.6986 -18.6877  -6.0058  -5.9946  -5.8990  -5.8688
    -5.6693  -5.6413  -5.6295  -5.5944  -5.5200  -5.4777  -5.4610  -5.3950
    -3.4889  -3.3184  -3.1171  -3.0838  -0.6375  -0.4978  -0.3079  -0.2714
    -0.1861  -0.1624  -0.0312   0.0034   0.1790   0.2044   0.2253   0.3573
     5.4135   5.7325   5.9063   6.0246   6.0564   6.6309

     occupation numbers 
     1.0000   1.0000   1.0000   1.0000   1.0000   1.0000   1.0000   1.0000
     1.0000   1.0000   1.0000   1.0000   1.0000   1.0000   1.0000   1.0000
     1.0000   1.0000   1.0000   1.0000   1.0000   1.0000   1.0000   1.0000
     1.0000   1.0000   1.0000   1.0000   1.0000   1.0000   1.0000   1.0000
     0.0000   0.0000   0.0000   0.0000   0.0000   0.0000

          k = 0.0000 0.2857 0.1671 ( 34504 PWs)   bands (ev):

   -18.7309 -18.7272 -18.6943 -18.6905  -5.9797  -5.9675  -5.9354  -5.9174
    -5.6587  -5.6450  -5.5997  -5.5799  -5.5037  -5.4891  -5.4541  -5.4266
    -3.4416  -3.3826  -3.0979  -3.0878  -0.5730  -0.5177  -0.3256  -0.3074
    -0.1856  -0.1785  -0.0210  -0.0088   0.1949   0.2113   0.2672   0.3199
     5.5000   5.6176   5.9280   5.9850   6.1874   6.3541

     occupation numbers 
     1.0000   1.0000   1.0000   1.0000   1.0000   1.0000   1.0000   1.0000
     1.0000   1.0000   1.0000   1.0000   1.0000   1.0000   1.0000   1.0000
     1.0000   1.0000   1.0000   1.0000   1.0000   1.0000   1.0000   1.0000
     1.0000   1.0000   1.0000   1.0000   1.0000   1.0000   1.0000   1.0000
     0.0000   0.0000   0.0000   0.0000   0.0000   0.0000

          k = 0.0000 0.4286 0.0000 ( 34522 PWs)   bands (ev):

   -18.7287 -18.7217 -18.6977 -18.6907  -6.0976  -6.0898  -5.8781  -5.8539
    -5.7234  -5.6729  -5.6450  -5.6201  -5.5078  -5.4814  -5.4218  -5.3877
    -3.1978  -3.0637  -3.0588  -3.0041  -0.8967  -0.8176  -0.4123  -0.3575
    -0.1889  -0.1697  -0.0455   0.0231   0.0244   0.1001   0.1816   0.3254
     5.8458   5.9814   6.1231   6.1923   6.4456   6.5337

     occupation numbers 
     1.0000   1.0000   1.0000   1.0000   1.0000   1.0000   1.0000   1.0000
     1.0000   1.0000   1.0000   1.0000   1.0000   1.0000   1.0000   1.0000
     1.0000   1.0000   1.0000   1.0000   1.0000   1.0000   1.0000   1.0000
     1.0000   1.0000   1.0000   1.0000   1.0000   1.0000   1.0000   1.0000
     0.0000   0.0000   0.0000   0.0000   0.0000   0.0000

          k = 0.0000 0.4286 0.0557 ( 34518 PWs)   bands (ev):

   -18.7284 -18.7222 -18.6972 -18.6909  -6.0909  -6.0835  -5.8972  -5.8816
    -5.6961  -5.6547  -5.6440  -5.6216  -5.5062  -5.4826  -5.4268  -5.3943
    -3.1935  -3.0817  -3.0461  -3.0058  -0.8791  -0.8056  -0.4168  -0.3605
    -0.2083  -0.2024  -0.0434   0.0102   0.0376   0.0975   0.2083   0.3308
     5.8664   5.9978   6.1423   6.2148   6.4159   6.5332

     occupation numbers 
     1.0000   1.0000   1.0000   1.0000   1.0000   1.0000   1.0000   1.0000
     1.0000   1.0000   1.0000   1.0000   1.0000   1.0000   1.0000   1.0000
     1.0000   1.0000   1.0000   1.0000   1.0000   1.0000   1.0000   1.0000
     1.0000   1.0000   1.0000   1.0000   1.0000   1.0000   1.0000   1.0000
     0.0000   0.0000   0.0000   0.0000   0.0000   0.0000

          k = 0.0000 0.4286 0.1114 ( 34530 PWs)   bands (ev):

   -18.7276 -18.7233 -18.6961 -18.6918  -6.0714  -6.0654  -5.9379  -5.9321
    -5.6476  -5.6410  -5.6256  -5.6190  -5.5020  -5.4858  -5.4387  -5.4121
    -3.1808  -3.1070  -3.0348  -3.0104  -0.8333  -0.7772  -0.4296  -0.3760
    -0.2626  -0.2500  -0.0372  -0.0032   0.0519   0.0903   0.2611   0.3385
     5.9275   6.0434   6.1789   6.2786   6.3141   6.5180

     occupation numbers 
     1.0000   1.0000   1.0000   1.0000   1.0000   1.0000   1.0000   1.0000
     1.0000   1.0000   1.0000   1.0000   1.0000   1.0000   1.0000   1.0000
     1.0000   1.0000   1.0000   1.0000   1.0000   1.0000   1.0000   1.0000
     1.0000   1.0000   1.0000   1.0000   1.0000   1.0000   1.0000   1.0000
     0.0000   0.0000   0.0000   0.0000   0.0000   0.0000

          k = 0.0000 0.4286 0.1671 ( 34538 PWs)   bands (ev):

   -18.7263 -18.7248 -18.6946 -18.6930  -6.0439  -6.0407  -5.9779  -5.9773
    -5.6364  -5.6309  -5.6076  -5.5959  -5.4964  -5.4906  -5.4460  -5.4344
    -3.1604  -3.1347  -3.0254  -3.0172  -0.7810  -0.7583  -0.4382  -0.4140
    -0.2914  -0.2831  -0.0277  -0.0161   0.0660   0.0793   0.3072   0.3334
     6.0235   6.0936   6.1820   6.1887   6.3703   6.4618

     occupation numbers 
     1.0000   1.0000   1.0000   1.0000   1.0000   1.0000   1.0000   1.0000
     1.0000   1.0000   1.0000   1.0000   1.0000   1.0000   1.0000   1.0000
     1.0000   1.0000   1.0000   1.0000   1.0000   1.0000   1.0000   1.0000
     1.0000   1.0000   1.0000   1.0000   1.0000   1.0000   1.0000   1.0000
     0.0000   0.0000   0.0000   0.0000   0.0000   0.0000

          k = 0.1429 0.1429 0.0000 ( 34503 PWs)   bands (ev):

   -18.7396 -18.7115 -18.7115 -18.6831  -5.9971  -5.8812  -5.8812  -5.6908
    -5.6692  -5.6692  -5.6672  -5.6486  -5.5767  -5.4642  -5.4642  -5.3545
    -3.7481  -3.3142  -3.3142  -3.1726  -0.4018  -0.4018  -0.2391  -0.2365
    -0.0796  -0.0651  -0.0651   0.0664   0.1102   0.3065   0.3065   0.4904
     5.0670   5.6648   5.6650   6.0985   6.1089   6.1509

     occupation numbers 
     1.0000   1.0000   1.0000   1.0000   1.0000   1.0000   1.0000   1.0000
     1.0000   1.0000   1.0000   1.0000   1.0000   1.0000   1.0000   1.0000
     1.0000   1.0000   1.0000   1.0000   1.0000   1.0000   1.0000   1.0000
     1.0000   1.0000   1.0000   1.0000   1.0000   1.0000   1.0000   1.0000
     0.0000   0.0000   0.0000   0.0000   0.0000   0.0000

          k = 0.1429 0.1429 0.0557 ( 34492 PWs)   bands (ev):

   -18.7389 -18.7177 -18.7052 -18.6838  -5.9929  -5.8975  -5.8650  -5.7203
    -5.7025  -5.6614  -5.6381  -5.6262  -5.5635  -5.4674  -5.4665  -5.3638
    -3.7333  -3.3853  -3.2574  -3.1727  -0.3979  -0.3889  -0.2477  -0.2450
    -0.0749  -0.0631  -0.0622   0.0516   0.1222   0.2715   0.3410   0.4840
     5.0798   5.5653   5.7394   5.9813   6.1087   6.1715

     occupation numbers 
     1.0000   1.0000   1.0000   1.0000   1.0000   1.0000   1.0000   1.0000
     1.0000   1.0000   1.0000   1.0000   1.0000   1.0000   1.0000   1.0000
     1.0000   1.0000   1.0000   1.0000   1.0000   1.0000   1.0000   1.0000
     1.0000   1.0000   1.0000   1.0000   1.0000   1.0000   1.0000   1.0000
     0.0000   0.0000   0.0000   0.0000   0.0000   0.0000

          k = 0.1429 0.1429 0.1114 ( 34502 PWs)   bands (ev):

   -18.7368 -18.7237 -18.6992 -18.6859  -5.9809  -5.9170  -5.8455  -5.7573
    -5.7198  -5.6852  -5.6030  -5.5841  -5.5383  -5.4756  -5.4710  -5.3897
    -3.6912  -3.4661  -3.2170  -3.1739  -0.3787  -0.3616  -0.2759  -0.2627
    -0.0654  -0.0579  -0.0536   0.0226   0.1449   0.2368   0.3751   0.4660
     5.1204   5.4298   5.8315   5.9714   6.0989   6.1950

     occupation numbers 
     1.0000   1.0000   1.0000   1.0000   1.0000   1.0000   1.0000   1.0000
     1.0000   1.0000   1.0000   1.0000   1.0000   1.0000   1.0000   1.0000
     1.0000   1.0000   1.0000   1.0000   1.0000   1.0000   1.0000   1.0000
     1.0000   1.0000   1.0000   1.0000   1.0000   1.0000   1.0000   1.0000
     0.0000   0.0000   0.0000   0.0000   0.0000   0.0000

          k = 0.1429 0.1429 0.1671 ( 34488 PWs)   bands (ev):

   -18.7335 -18.7290 -18.6938 -18.6893  -5.9623  -5.9397  -5.8211  -5.7915
    -5.7201  -5.7069  -5.5747  -5.5633  -5.5129  -5.4914  -5.4595  -5.4260
    -3.6273  -3.5494  -3.1919  -3.1790  -0.3483  -0.3262  -0.3119  -0.2909
    -0.0579  -0.0556  -0.0353  -0.0087   0.1723   0.2033   0.4084   0.4396
     5.1925   5.2977   5.9577   6.0149   6.0662   6.1053

     occupation numbers 
     1.0000   1.0000   1.0000   1.0000   1.0000   1.0000   1.0000   1.0000
     1.0000   1.0000   1.0000   1.0000   1.0000   1.0000   1.0000   1.0000
     1.0000   1.0000   1.0000   1.0000   1.0000   1.0000   1.0000   1.0000
     1.0000   1.0000   1.0000   1.0000   1.0000   1.0000   1.0000   1.0000
     0.0000   0.0000   0.0000   0.0000   0.0000   0.0000

          k = 0.1429 0.2857 0.0000 ( 34479 PWs)   bands (ev):

   -18.7339 -18.7145 -18.7059 -18.6863  -6.0087  -5.9995  -5.8799  -5.7634
    -5.7570  -5.6799  -5.6553  -5.6486  -5.5532  -5.4690  -5.4499  -5.3592
    -3.4745  -3.2101  -3.1826  -3.1022  -0.6282  -0.5322  -0.2665  -0.2298
    -0.2118  -0.1636  -0.1233   0.0033   0.0434   0.2004   0.2119   0.4898
     5.5601   5.8596   5.8678   5.8974   6.4209   6.5660

     occupation numbers 
     1.0000   1.0000   1.0000   1.0000   1.0000   1.0000   1.0000   1.0000
     1.0000   1.0000   1.0000   1.0000   1.0000   1.0000   1.0000   1.0000
     1.0000   1.0000   1.0000   1.0000   1.0000   1.0000   1.0000   1.0000
     1.0000   1.0000   1.0000   1.0000   1.0000   1.0000   1.0000   1.0000
     0.0000   0.0000   0.0000   0.0000   0.0000   0.0000

          k = 0.1429 0.2857 0.0557 ( 34491 PWs)   bands (ev):

   -18.7334 -18.7169 -18.7035 -18.6869  -6.0038  -5.9938  -5.8872  -5.8131
    -5.7086  -5.6979  -5.6559  -5.6295  -5.5447  -5.4708  -5.4522  -5.3662
    -3.4659  -3.2467  -3.1553  -3.1019  -0.6172  -0.5308  -0.2754  -0.2425
    -0.2078  -0.1681  -0.1127   0.0037   0.0412   0.1602   0.2604   0.4825
     5.5748   5.8770   5.8803   5.9050   6.2778   6.4416

     occupation numbers 
     1.0000   1.0000   1.0000   1.0000   1.0000   1.0000   1.0000   1.0000
     1.0000   1.0000   1.0000   1.0000   1.0000   1.0000   1.0000   1.0000
     1.0000   1.0000   1.0000   1.0000   1.0000   1.0000   1.0000   1.0000
     1.0000   1.0000   1.0000   1.0000   1.0000   1.0000   1.0000   1.0000
     0.0000   0.0000   0.0000   0.0000   0.0000   0.0000

          k = 0.1429 0.2857 0.1114 ( 34493 PWs)   bands (ev):

   -18.7317 -18.7212 -18.6992 -18.6886  -5.9896  -5.9775  -5.9069  -5.8629
    -5.7097  -5.6801  -5.6539  -5.6011  -5.5259  -5.4755  -5.4548  -5.3862
    -3.4410  -3.2995  -3.1287  -3.1018  -0.5888  -0.5289  -0.2938  -0.2701
    -0.2013  -0.1761  -0.0900  -0.0076   0.0476   0.1233   0.3185   0.4604
     5.6211   5.8784   5.9294   5.9306   6.1259   6.2852

     occupation numbers 
     1.0000   1.0000   1.0000   1.0000   1.0000   1.0000   1.0000   1.0000
     1.0000   1.0000   1.0000   1.0000   1.0000   1.0000   1.0000   1.0000
     1.0000   1.0000   1.0000   1.0000   1.0000   1.0000   1.0000   1.0000
     1.0000   1.0000   1.0000   1.0000   1.0000   1.0000   1.0000   1.0000
     0.0000   0.0000   0.0000   0.0000   0.0000   0.0000

          k = 0.1429 0.2857 0.1671 ( 34501 PWs)   bands (ev):

   -18.7290 -18.7254 -18.6950 -18.6913  -5.9685  -5.9565  -5.9278  -5.9063
    -5.7072  -5.6949  -5.6179  -5.5962  -5.5051  -5.4870  -5.4423  -5.4146
    -3.4021  -3.3533  -3.1122  -3.1042  -0.5558  -0.5344  -0.3053  -0.2965
    -0.1933  -0.1847  -0.0625  -0.0333   0.0671   0.0928   0.3751   0.4239
     5.7008   5.8034   5.9760   5.9792   6.0793   6.1525

     occupation numbers 
     1.0000   1.0000   1.0000   1.0000   1.0000   1.0000   1.0000   1.0000
     1.0000   1.0000   1.0000   1.0000   1.0000   1.0000   1.0000   1.0000
     1.0000   1.0000   1.0000   1.0000   1.0000   1.0000   1.0000   1.0000
     1.0000   1.0000   1.0000   1.0000   1.0000   1.0000   1.0000   1.0000
     0.0000   0.0000   0.0000   0.0000   0.0000   0.0000

          k = 0.1429 0.4286 0.0000 ( 34495 PWs)   bands (ev):

   -18.7266 -18.7197 -18.6987 -18.6917  -6.0695  -6.0616  -5.8816  -5.8477
    -5.7363  -5.6843  -5.6683  -5.6519  -5.5164  -5.4859  -5.4180  -5.3829
    -3.2164  -3.1119  -3.1089  -3.0673  -0.8041  -0.7690  -0.3484  -0.3093
    -0.1674  -0.1424  -0.1391  -0.0602   0.0192   0.0816   0.2483   0.3904
     5.9377   6.0250   6.1145   6.1221   6.3335   6.4221

     occupation numbers 
     1.0000   1.0000   1.0000   1.0000   1.0000   1.0000   1.0000   1.0000
     1.0000   1.0000   1.0000   1.0000   1.0000   1.0000   1.0000   1.0000
     1.0000   1.0000   1.0000   1.0000   1.0000   1.0000   1.0000   1.0000
     1.0000   1.0000   1.0000   1.0000   1.0000   1.0000   1.0000   1.0000
     0.0000   0.0000   0.0000   0.0000   0.0000   0.0000

          k = 0.1429 0.4286 0.0557 ( 34508 PWs)   bands (ev):

   -18.7264 -18.7201 -18.6982 -18.6920  -6.0633  -6.0559  -5.8962  -5.8736
    -5.7115  -5.6863  -5.6542  -5.6530  -5.5134  -5.4861  -5.4220  -5.3887
    -3.2132  -3.1280  -3.0967  -3.0681  -0.7909  -0.7591  -0.3515  -0.3124
    -0.1974  -0.1911  -0.1000  -0.0479   0.0173   0.0758   0.2670   0.3909
     5.9636   6.0349   6.0791   6.1622   6.3561   6.3991

     occupation numbers 
     1.0000   1.0000   1.0000   1.0000   1.0000   1.0000   1.0000   1.0000
     1.0000   1.0000   1.0000   1.0000   1.0000   1.0000   1.0000   1.0000
     1.0000   1.0000   1.0000   1.0000   1.0000   1.0000   1.0000   1.0000
     1.0000   1.0000   1.0000   1.0000   1.0000   1.0000   1.0000   1.0000
     0.0000   0.0000   0.0000   0.0000   0.0000   0.0000

          k = 0.1429 0.4286 0.1114 ( 34511 PWs)   bands (ev):

   -18.7256 -18.7213 -18.6971 -18.6928  -6.0453  -6.0394  -5.9296  -5.9203
    -5.6841  -5.6713  -5.6580  -5.6285  -5.5052  -5.4860  -5.4316  -5.4044
    -3.2039  -3.1485  -3.0867  -3.0703  -0.7576  -0.7348  -0.3619  -0.3281
    -0.2503  -0.2334  -0.0735  -0.0350   0.0184   0.0630   0.3077   0.3886
     6.0260   6.0610   6.0659   6.1872   6.3537   6.4008

     occupation numbers 
     1.0000   1.0000   1.0000   1.0000   1.0000   1.0000   1.0000   1.0000
     1.0000   1.0000   1.0000   1.0000   1.0000   1.0000   1.0000   1.0000
     1.0000   1.0000   1.0000   1.0000   1.0000   1.0000   1.0000   1.0000
     1.0000   1.0000   1.0000   1.0000   1.0000   1.0000   1.0000   1.0000
     0.0000   0.0000   0.0000   0.0000   0.0000   0.0000

          k = 0.1429 0.4286 0.1671 ( 34513 PWs)   bands (ev):

   -18.7243 -18.7228 -18.6955 -18.6940  -6.0194  -6.0164  -5.9644  -5.9627
    -5.6781  -5.6703  -5.6323  -5.6181  -5.4943  -5.4866  -5.4365  -5.4245
    -3.1889  -3.1697  -3.0794  -3.0741  -0.7234  -0.7148  -0.3731  -0.3604
    -0.2694  -0.2622  -0.0542  -0.0396   0.0308   0.0475   0.3480   0.3758
     6.0613   6.0624   6.1318   6.1792   6.3411   6.3891

     occupation numbers 
     1.0000   1.0000   1.0000   1.0000   1.0000   1.0000   1.0000   1.0000
     1.0000   1.0000   1.0000   1.0000   1.0000   1.0000   1.0000   1.0000
     1.0000   1.0000   1.0000   1.0000   1.0000   1.0000   1.0000   1.0000
     1.0000   1.0000   1.0000   1.0000   1.0000   1.0000   1.0000   1.0000
     0.0000   0.0000   0.0000   0.0000   0.0000   0.0000

          k = 0.2857 0.2857 0.0000 ( 34483 PWs)   bands (ev):

   -18.7284 -18.7090 -18.7090 -18.6895  -5.9783  -5.9521  -5.9521  -5.7983
    -5.7863  -5.6964  -5.6863  -5.6863  -5.5459  -5.4550  -5.4550  -5.3624
    -3.3620  -3.2055  -3.2055  -3.1543  -0.6023  -0.4435  -0.4435  -0.2024
    -0.1781  -0.1489  -0.1489  -0.1435   0.0500   0.1877   0.1877   0.5165
     5.6362   6.0754   6.0754   6.0973   6.4911   6.6539

     occupation numbers 
     1.0000   1.0000   1.0000   1.0000   1.0000   1.0000   1.0000   1.0000
     1.0000   1.0000   1.0000   1.0000   1.0000   1.0000   1.0000   1.0000
     1.0000   1.0000   1.0000   1.0000   1.0000   1.0000   1.0000   1.0000
     1.0000   1.0000   1.0000   1.0000   1.0000   1.0000   1.0000   1.0000
     0.0000   0.0000   0.0000   0.0000   0.0000   0.0000

          k = 0.2857 0.2857 0.0557 ( 34506 PWs)   bands (ev):

   -18.7279 -18.7133 -18.7047 -18.6900  -5.9747  -5.9536  -5.9460  -5.8370
    -5.7455  -5.7215  -5.7057  -5.6528  -5.5374  -5.4568  -5.4552  -5.3683
    -3.3576  -3.2352  -3.1809  -3.1534  -0.6005  -0.4936  -0.3853  -0.2097
    -0.1690  -0.1570  -0.1422  -0.1408   0.0405   0.1214   0.2581   0.5083
     5.6670   6.0624   6.0786   6.1104   6.3933   6.6091

     occupation numbers 
     1.0000   1.0000   1.0000   1.0000   1.0000   1.0000   1.0000   1.0000
     1.0000   1.0000   1.0000   1.0000   1.0000   1.0000   1.0000   1.0000
     1.0000   1.0000   1.0000   1.0000   1.0000   1.0000   1.0000   1.0000
     1.0000   1.0000   1.0000   1.0000   1.0000   1.0000   1.0000   1.0000
     0.0000   0.0000   0.0000   0.0000   0.0000   0.0000

          k = 0.2857 0.2857 0.1114 ( 34493 PWs)   bands (ev):

   -18.7265 -18.7174 -18.7005 -18.6914  -5.9648  -5.9475  -5.9405  -5.8763
    -5.7480  -5.7268  -5.7009  -5.6333  -5.5180  -5.4641  -5.4500  -5.3847
    -3.3448  -3.2671  -3.1634  -3.1514  -0.5944  -0.5334  -0.3245  -0.2221
    -0.1618  -0.1553  -0.1387  -0.1354   0.0187   0.0642   0.3275   0.4838
     5.7527   6.0537   6.0582   6.1497   6.2513   6.4711

     occupation numbers 
     1.0000   1.0000   1.0000   1.0000   1.0000   1.0000   1.0000   1.0000
     1.0000   1.0000   1.0000   1.0000   1.0000   1.0000   1.0000   1.0000
     1.0000   1.0000   1.0000   1.0000   1.0000   1.0000   1.0000   1.0000
     1.0000   1.0000   1.0000   1.0000   1.0000   1.0000   1.0000   1.0000
     0.0000   0.0000   0.0000   0.0000   0.0000   0.0000

          k = 0.2857 0.2857 0.1671 ( 34470 PWs)   bands (ev):

   -18.7242 -18.7211 -18.6968 -18.6937  -5.9519  -5.9420  -5.9326  -5.9086
    -5.7571  -5.7476  -5.6625  -5.6372  -5.4963  -5.4775  -5.4331  -5.4084
    -3.3244  -3.2978  -3.1538  -3.1506  -0.5824  -0.5627  -0.2721  -0.2394
    -0.1589  -0.1515  -0.1352  -0.1336   0.0058   0.0223   0.3909   0.4440
     5.8713   5.9839   6.0810   6.1437   6.2174   6.3241

     occupation numbers 
     1.0000   1.0000   1.0000   1.0000   1.0000   1.0000   1.0000   1.0000
     1.0000   1.0000   1.0000   1.0000   1.0000   1.0000   1.0000   1.0000
     1.0000   1.0000   1.0000   1.0000   1.0000   1.0000   1.0000   1.0000
     1.0000   1.0000   1.0000   1.0000   1.0000   1.0000   1.0000   1.0000
     0.0000   0.0000   0.0000   0.0000   0.0000   0.0000

          k = 0.2857 0.4286 0.0000 ( 34481 PWs)   bands (ev):

   -18.7211 -18.7142 -18.7018 -18.6948  -6.0017  -5.9967  -5.9051  -5.8543
    -5.7718  -5.7160  -5.7012  -5.6980  -5.5113  -5.4764  -5.4217  -5.3857
    -3.2724  -3.2247  -3.2244  -3.2080  -0.6322  -0.5780  -0.2564  -0.2299
    -0.1919  -0.1414  -0.1078  -0.0833   0.0093   0.0624   0.2599   0.4091
     5.7022   6.0970   6.2661   6.3416   6.3598   6.5084

     occupation numbers 
     1.0000   1.0000   1.0000   1.0000   1.0000   1.0000   1.0000   1.0000
     1.0000   1.0000   1.0000   1.0000   1.0000   1.0000   1.0000   1.0000
     1.0000   1.0000   1.0000   1.0000   1.0000   1.0000   1.0000   1.0000
     1.0000   1.0000   1.0000   1.0000   1.0000   1.0000   1.0000   1.0000
     0.0000   0.0000   0.0000   0.0000   0.0000   0.0000

          k = 0.2857 0.4286 0.0557 ( 34489 PWs)   bands (ev):

   -18.7209 -18.7147 -18.7013 -18.6951  -5.9978  -5.9927  -5.9095  -5.8728
    -5.7533  -5.7311  -5.7019  -5.6835  -5.5070  -5.4756  -5.4245  -5.3904
    -3.2714  -3.2354  -3.2152  -3.2074  -0.6268  -0.5768  -0.2555  -0.2286
    -0.1948  -0.1611  -0.0904  -0.0832   0.0039   0.0533   0.2740   0.4053
     5.7337   6.0898   6.2450   6.3127   6.3670   6.5177

     occupation numbers 
     1.0000   1.0000   1.0000   1.0000   1.0000   1.0000   1.0000   1.0000
     1.0000   1.0000   1.0000   1.0000   1.0000   1.0000   1.0000   1.0000
     1.0000   1.0000   1.0000   1.0000   1.0000   1.0000   1.0000   1.0000
     1.0000   1.0000   1.0000   1.0000   1.0000   1.0000   1.0000   1.0000
     0.0000   0.0000   0.0000   0.0000   0.0000   0.0000

          k = 0.2857 0.4286 0.1114 ( 34489 PWs)   bands (ev):

   -18.7201 -18.7160 -18.7000 -18.6958  -5.9861  -5.9814  -5.9222  -5.9059
    -5.7417  -5.7266  -5.7061  -5.6679  -5.4957  -5.4728  -5.4309  -5.4032
    -3.2685  -3.2462  -3.2086  -3.2059  -0.6125  -0.5758  -0.2514  -0.2250
    -0.2020  -0.1911  -0.0810  -0.0695  -0.0066   0.0335   0.3062   0.3932
     5.8219   6.0803   6.1951   6.2286   6.4075   6.5192

     occupation numbers 
     1.0000   1.0000   1.0000   1.0000   1.0000   1.0000   1.0000   1.0000
     1.0000   1.0000   1.0000   1.0000   1.0000   1.0000   1.0000   1.0000
     1.0000   1.0000   1.0000   1.0000   1.0000   1.0000   1.0000   1.0000
     1.0000   1.0000   1.0000   1.0000   1.0000   1.0000   1.0000   1.0000
     0.0000   0.0000   0.0000   0.0000   0.0000   0.0000

          k = 0.2857 0.4286 0.1671 ( 34491 PWs)   bands (ev):

   -18.7190 -18.7175 -18.6985 -18.6970  -5.9679  -5.9653  -5.9400  -5.9366
    -5.7405  -5.7313  -5.6847  -5.6679  -5.4819  -5.4723  -5.4322  -5.4201
    -3.2633  -3.2558  -3.2052  -3.2047  -0.5948  -0.5811  -0.2407  -0.2233
    -0.2148  -0.2103  -0.0739  -0.0651  -0.0049   0.0122   0.3416   0.3718
     5.9466   6.0604   6.1308   6.1576   6.4532   6.4964

     occupation numbers 
     1.0000   1.0000   1.0000   1.0000   1.0000   1.0000   1.0000   1.0000
     1.0000   1.0000   1.0000   1.0000   1.0000   1.0000   1.0000   1.0000
     1.0000   1.0000   1.0000   1.0000   1.0000   1.0000   1.0000   1.0000
     1.0000   1.0000   1.0000   1.0000   1.0000   1.0000   1.0000   1.0000
     0.0000   0.0000   0.0000   0.0000   0.0000   0.0000

          k = 0.4286 0.4286 0.0000 ( 34505 PWs)   bands (ev):

   -18.7140 -18.7070 -18.7070 -18.7001  -5.9535  -5.9372  -5.9372  -5.8929
    -5.7728  -5.7311  -5.7311  -5.7171  -5.4795  -5.4439  -5.4439  -5.4080
    -3.3299  -3.3202  -3.3202  -3.3187  -0.4670  -0.3487  -0.3487  -0.2390
    -0.0995  -0.0777  -0.0777  -0.0247   0.0104   0.1505   0.1505   0.3041
     5.7485   6.0947   6.0947   6.2517   6.5920   6.5922

     occupation numbers 
     1.0000   1.0000   1.0000   1.0000   1.0000   1.0000   1.0000   1.0000
     1.0000   1.0000   1.0000   1.0000   1.0000   1.0000   1.0000   1.0000
     1.0000   1.0000   1.0000   1.0000   1.0000   1.0000   1.0000   1.0000
     1.0000   1.0000   1.0000   1.0000   1.0000   1.0000   1.0000   1.0000
     0.0000   0.0000   0.0000   0.0000   0.0000   0.0000

          k = 0.4286 0.4286 0.0557 ( 34500 PWs)   bands (ev):

   -18.7138 -18.7086 -18.7055 -18.7003  -5.9516  -5.9434  -5.9309  -5.9007
    -5.7624  -5.7457  -5.7200  -5.7144  -5.4778  -5.4453  -5.4450  -5.4115
    -3.3300  -3.3241  -3.3178  -3.3163  -0.4650  -0.3810  -0.3142  -0.2392
    -0.0966  -0.0828  -0.0717  -0.0212   0.0042   0.1162   0.1828   0.2994
     5.7826   6.0652   6.1714   6.2557   6.5299   6.6037

     occupation numbers 
     1.0000   1.0000   1.0000   1.0000   1.0000   1.0000   1.0000   1.0000
     1.0000   1.0000   1.0000   1.0000   1.0000   1.0000   1.0000   1.0000
     1.0000   1.0000   1.0000   1.0000   1.0000   1.0000   1.0000   1.0000
     1.0000   1.0000   1.0000   1.0000   1.0000   1.0000   1.0000   1.0000
     0.0000   0.0000   0.0000   0.0000   0.0000   0.0000

          k = 0.4286 0.4286 0.1114 ( 34515 PWs)   bands (ev):

   -18.7133 -18.7100 -18.7040 -18.7008  -5.9464  -5.9459  -5.9285  -5.9171
    -5.7522  -5.7395  -5.7281  -5.7029  -5.4728  -5.4496  -5.4459  -5.4207
    -3.3301  -3.3272  -3.3158  -3.3135  -0.4587  -0.4088  -0.2822  -0.2405
    -0.0890  -0.0819  -0.0692  -0.0238   0.0006   0.0815   0.2130   0.2861
     5.8799   6.0865   6.2555   6.2593   6.4397   6.5561

     occupation numbers 
     1.0000   1.0000   1.0000   1.0000   1.0000   1.0000   1.0000   1.0000
     1.0000   1.0000   1.0000   1.0000   1.0000   1.0000   1.0000   1.0000
     1.0000   1.0000   1.0000   1.0000   1.0000   1.0000   1.0000   1.0000
     1.0000   1.0000   1.0000   1.0000   1.0000   1.0000   1.0000   1.0000
     0.0000   0.0000   0.0000   0.0000   0.0000   0.0000

          k = 0.4286 0.4286 0.1671 ( 34522 PWs)   bands (ev):

   -18.7124 -18.7114 -18.7027 -18.7016  -5.9424  -5.9390  -5.9324  -5.9319
    -5.7489  -5.7391  -5.7169  -5.7032  -5.4654  -5.4570  -5.4418  -5.4324
    -3.3299  -3.3291  -3.3136  -3.3126  -0.4475  -0.4310  -0.2585  -0.2455
    -0.0796  -0.0721  -0.0698  -0.0474   0.0202   0.0485   0.2410   0.2659
     6.0252   6.1478   6.1871   6.2192   6.4928   6.5436

     occupation numbers 
     1.0000   1.0000   1.0000   1.0000   1.0000   1.0000   1.0000   1.0000
     1.0000   1.0000   1.0000   1.0000   1.0000   1.0000   1.0000   1.0000
     1.0000   1.0000   1.0000   1.0000   1.0000   1.0000   1.0000   1.0000
     1.0000   1.0000   1.0000   1.0000   1.0000   1.0000   1.0000   1.0000
     0.0000   0.0000   0.0000   0.0000   0.0000   0.0000

     the Fermi energy is     3.5812 ev

!    total energy              =    -429.31418173 Ry
     estimated scf accuracy    <          5.9E-10 Ry
     smearing contrib. (-TS)   =       0.00000000 Ry
     internal energy E=F+TS    =    -429.31418173 Ry

     The total energy is F=E-TS. E is the sum of the following terms:
     one-electron contribution =     -24.95070575 Ry
     hartree contribution      =      31.98910035 Ry
     xc contribution           =    -142.66342639 Ry
     ewald contribution        =    -154.89302908 Ry
     one-center paw contrib.   =    -138.79612086 Ry
      -> PAW hartree energy AE =       5.31391858 Ry
      -> PAW hartree energy PS =      -5.29691055 Ry
      -> PAW xc energy AE      =    -110.36494539 Ry
      -> PAW xc energy PS      =       6.25084678 Ry
      -> total E_H with PAW    =      32.00610837 Ry
      -> total E_XC with PAW   =    -246.77752499 Ry

     convergence has been achieved in   8 iterations

     Forces acting on atoms (cartesian axes, Ry/au):

     atom    1 type  2   force =     0.00000000    0.00000000    0.00000000
     atom    2 type  2   force =     0.00000000    0.00000000    0.00000026
     atom    3 type  2   force =     0.00000000    0.00000000    0.00000000
     atom    4 type  2   force =     0.00000000    0.00000000   -0.00000026
     atom    5 type  3   force =     0.00000000    0.00000000    0.00000000
     atom    6 type  3   force =     0.00000000    0.00000000   -0.00000060
     atom    7 type  3   force =     0.00000000    0.00000000    0.00000000
     atom    8 type  3   force =     0.00000000    0.00000000    0.00000060
     atom    9 type  1   force =    -0.00072399   -0.00000000   -0.00054692
     atom   10 type  1   force =     0.00072399    0.00000000   -0.00054692
     atom   11 type  1   force =    -0.00072407    0.00000000    0.00054688
     atom   12 type  1   force =     0.00072407    0.00000000    0.00054688
     atom   13 type  1   force =     0.00000000    0.00072402   -0.00054702
     atom   14 type  1   force =    -0.00000000   -0.00072402   -0.00054702
     atom   15 type  1   force =    -0.00000000    0.00072392    0.00054682
     atom   16 type  1   force =     0.00000000   -0.00072392    0.00054682
     atom   17 type  1   force =     0.00072392   -0.00000000   -0.00054682
     atom   18 type  1   force =    -0.00072392    0.00000000   -0.00054682
     atom   19 type  1   force =     0.00072402    0.00000000    0.00054702
     atom   20 type  1   force =    -0.00072402   -0.00000000    0.00054702
     atom   21 type  1   force =     0.00000000   -0.00072407   -0.00054688
     atom   22 type  1   force =    -0.00000000    0.00072407   -0.00054688
     atom   23 type  1   force =     0.00000000   -0.00072399    0.00054692
     atom   24 type  1   force =     0.00000000    0.00072399    0.00054692
     The non-local contrib.  to forces
     atom    1 type  2   force =     0.00000000    0.00000000    0.00000000
     atom    2 type  2   force =     0.00000000    0.00000000   -0.00000010
     atom    3 type  2   force =     0.00000000    0.00000000    0.00000000
     atom    4 type  2   force =     0.00000000    0.00000000    0.00000010
     atom    5 type  3   force =     0.00000000    0.00000000    0.00000000
     atom    6 type  3   force =     0.00000000    0.00000000    0.00000011
     atom    7 type  3   force =     0.00000000    0.00000000    0.00000000
     atom    8 type  3   force =     0.00000000    0.00000000   -0.00000011
     atom    9 type  1   force =    -0.01977945   -0.00000000   -0.01334893
     atom   10 type  1   force =     0.01977945   -0.00000000   -0.01334893
     atom   11 type  1   force =    -0.01977946    0.00000000    0.01334892
     atom   12 type  1   force =     0.01977946    0.00000000    0.01334892
     atom   13 type  1   force =     0.00000000    0.01977946   -0.01334895
     atom   14 type  1   force =    -0.00000000   -0.01977946   -0.01334895
     atom   15 type  1   force =    -0.00000000    0.01977945    0.01334892
     atom   16 type  1   force =     0.00000000   -0.01977945    0.01334892
     atom   17 type  1   force =     0.01977945   -0.00000000   -0.01334892
     atom   18 type  1   force =    -0.01977945    0.00000000   -0.01334892
     atom   19 type  1   force =     0.01977946    0.00000000    0.01334895
     atom   20 type  1   force =    -0.01977946   -0.00000000    0.01334895
     atom   21 type  1   force =     0.00000000   -0.01977946   -0.01334892
     atom   22 type  1   force =     0.00000000    0.01977946   -0.01334892
     atom   23 type  1   force =     0.00000000   -0.01977945    0.01334893
     atom   24 type  1   force =    -0.00000000    0.01977945    0.01334893
     The ionic contribution  to forces
     atom    1 type  2   force =    -0.00000000   -0.00000000   -0.00000000
     atom    2 type  2   force =     0.00000000   -0.00000000   -0.00000000
     atom    3 type  2   force =    -0.00000000   -0.00000000    0.00000000
     atom    4 type  2   force =     0.00000000   -0.00000000    0.00000000
     atom    5 type  3   force =    -0.00000000   -0.00000000   -0.00000000
     atom    6 type  3   force =     0.00000000    0.00000000   -0.00000000
     atom    7 type  3   force =     0.00000000    0.00000000   -0.00000000
     atom    8 type  3   force =    -0.00000000    0.00000000   -0.00000000
     atom    9 type  1   force =     0.18912914    0.00000000    0.18183087
     atom   10 type  1   force =    -0.18912914   -0.00000000    0.18183087
     atom   11 type  1   force =     0.18912914    0.00000000   -0.18183087
     atom   12 type  1   force =    -0.18912914   -0.00000000   -0.18183087
     atom   13 type  1   force =     0.00000000   -0.18912914    0.18183087
     atom   14 type  1   force =    -0.00000000    0.18912914    0.18183087
     atom   15 type  1   force =     0.00000000   -0.18912914   -0.18183087
     atom   16 type  1   force =    -0.00000000    0.18912914   -0.18183087
     atom   17 type  1   force =    -0.18912914   -0.00000000    0.18183087
     atom   18 type  1   force =     0.18912914    0.00000000    0.18183087
     atom   19 type  1   force =    -0.18912914   -0.00000000   -0.18183087
     atom   20 type  1   force =     0.18912914    0.00000000   -0.18183087
     atom   21 type  1   force =    -0.00000000    0.18912914    0.18183087
     atom   22 type  1   force =    -0.00000000   -0.18912914    0.18183087
     atom   23 type  1   force =    -0.00000000    0.18912914   -0.18183087
     atom   24 type  1   force =     0.00000000   -0.18912914   -0.18183087
     The local contribution  to forces
     atom    1 type  2   force =    -0.00000000   -0.00000000   -0.00000000
     atom    2 type  2   force =     0.00000000    0.00000000   -0.00000126
     atom    3 type  2   force =    -0.00000000   -0.00000000    0.00000000
     atom    4 type  2   force =     0.00000000    0.00000000    0.00000126
     atom    5 type  3   force =     0.00000000    0.00000000   -0.00000000
     atom    6 type  3   force =     0.00000000    0.00000000   -0.00000547
     atom    7 type  3   force =     0.00000000    0.00000000    0.00000000
     atom    8 type  3   force =     0.00000000    0.00000000    0.00000547
     atom    9 type  1   force =    -0.17007435    0.00000000   -0.16902978
     atom   10 type  1   force =     0.17007435   -0.00000000   -0.16902978
     atom   11 type  1   force =    -0.17007456    0.00000000    0.16902925
     atom   12 type  1   force =     0.17007456   -0.00000000    0.16902925
     atom   13 type  1   force =    -0.00000000    0.17007447   -0.16903036
     atom   14 type  1   force =     0.00000000   -0.17007447   -0.16903036
     atom   15 type  1   force =     0.00000000    0.17007419    0.16902925
     atom   16 type  1   force =    -0.00000000   -0.17007419    0.16902925
     atom   17 type  1   force =     0.17007419    0.00000000   -0.16902925
     atom   18 type  1   force =    -0.17007419   -0.00000000   -0.16902925
     atom   19 type  1   force =     0.17007447   -0.00000000    0.16903036
     atom   20 type  1   force =    -0.17007447    0.00000000    0.16903036
     atom   21 type  1   force =     0.00000000   -0.17007456   -0.16902925
     atom   22 type  1   force =    -0.00000000    0.17007456   -0.16902925
     atom   23 type  1   force =     0.00000000   -0.17007435    0.16902978
     atom   24 type  1   force =    -0.00000000    0.17007435    0.16902978
     The core correction contribution to forces
     atom    1 type  2   force =     0.00000000    0.00000000   -0.00000000
     atom    2 type  2   force =     0.00000000    0.00000000    0.00000001
     atom    3 type  2   force =     0.00000000    0.00000000   -0.00000000
     atom    4 type  2   force =     0.00000000    0.00000000   -0.00000001
     atom    5 type  3   force =     0.00000000    0.00000000   -0.00000000
     atom    6 type  3   force =    -0.00000000    0.00000000   -0.00000006
     atom    7 type  3   force =     0.00000000    0.00000000    0.00000000
     atom    8 type  3   force =     0.00000000   -0.00000000    0.00000006
     atom    9 type  1   force =     0.00000000    0.00000000    0.00000000
     atom   10 type  1   force =     0.00000000    0.00000000    0.00000000
     atom   11 type  1   force =     0.00000000    0.00000000    0.00000000
     atom   12 type  1   force =     0.00000000    0.00000000    0.00000000
     atom   13 type  1   force =     0.00000000    0.00000000    0.00000000
     atom   14 type  1   force =     0.00000000    0.00000000    0.00000000
     atom   15 type  1   force =     0.00000000    0.00000000    0.00000000
     atom   16 type  1   force =     0.00000000    0.00000000    0.00000000
     atom   17 type  1   force =     0.00000000    0.00000000    0.00000000
     atom   18 type  1   force =     0.00000000    0.00000000    0.00000000
     atom   19 type  1   force =     0.00000000    0.00000000    0.00000000
     atom   20 type  1   force =     0.00000000    0.00000000    0.00000000
     atom   21 type  1   force =     0.00000000    0.00000000    0.00000000
     atom   22 type  1   force =     0.00000000    0.00000000    0.00000000
     atom   23 type  1   force =     0.00000000    0.00000000    0.00000000
     atom   24 type  1   force =     0.00000000    0.00000000    0.00000000
     The Hubbard contrib.    to forces
     atom    1 type  2   force =     0.00000000    0.00000000    0.00000000
     atom    2 type  2   force =     0.00000000    0.00000000    0.00000000
     atom    3 type  2   force =     0.00000000    0.00000000    0.00000000
     atom    4 type  2   force =     0.00000000    0.00000000    0.00000000
     atom    5 type  3   force =     0.00000000    0.00000000    0.00000000
     atom    6 type  3   force =     0.00000000    0.00000000    0.00000000
     atom    7 type  3   force =     0.00000000    0.00000000    0.00000000
     atom    8 type  3   force =     0.00000000    0.00000000    0.00000000
     atom    9 type  1   force =     0.00000000    0.00000000    0.00000000
     atom   10 type  1   force =     0.00000000    0.00000000    0.00000000
     atom   11 type  1   force =     0.00000000    0.00000000    0.00000000
     atom   12 type  1   force =     0.00000000    0.00000000    0.00000000
     atom   13 type  1   force =     0.00000000    0.00000000    0.00000000
     atom   14 type  1   force =     0.00000000    0.00000000    0.00000000
     atom   15 type  1   force =     0.00000000    0.00000000    0.00000000
     atom   16 type  1   force =     0.00000000    0.00000000    0.00000000
     atom   17 type  1   force =     0.00000000    0.00000000    0.00000000
     atom   18 type  1   force =     0.00000000    0.00000000    0.00000000
     atom   19 type  1   force =     0.00000000    0.00000000    0.00000000
     atom   20 type  1   force =     0.00000000    0.00000000    0.00000000
     atom   21 type  1   force =     0.00000000    0.00000000    0.00000000
     atom   22 type  1   force =     0.00000000    0.00000000    0.00000000
     atom   23 type  1   force =     0.00000000    0.00000000    0.00000000
     atom   24 type  1   force =     0.00000000    0.00000000    0.00000000
     The SCF correction term to forces
     atom    1 type  2   force =     0.00000000    0.00000000    0.00000000
     atom    2 type  2   force =     0.00000000    0.00000000    0.00000162
     atom    3 type  2   force =     0.00000000    0.00000000    0.00000000
     atom    4 type  2   force =     0.00000000   -0.00000000   -0.00000162
     atom    5 type  3   force =     0.00000000   -0.00000000   -0.00000000
     atom    6 type  3   force =     0.00000000    0.00000000    0.00000482
     atom    7 type  3   force =     0.00000000   -0.00000000   -0.00000000
     atom    8 type  3   force =    -0.00000000   -0.00000000   -0.00000482
     atom    9 type  1   force =     0.00000067    0.00000000    0.00000092
     atom   10 type  1   force =    -0.00000067    0.00000000    0.00000092
     atom   11 type  1   force =     0.00000081   -0.00000000   -0.00000042
     atom   12 type  1   force =    -0.00000081   -0.00000000   -0.00000042
     atom   13 type  1   force =     0.00000000   -0.00000078    0.00000142
     atom   14 type  1   force =    -0.00000000    0.00000078    0.00000142
     atom   15 type  1   force =     0.00000000   -0.00000057   -0.00000048
     atom   16 type  1   force =     0.00000000    0.00000057   -0.00000048
     atom   17 type  1   force =    -0.00000057    0.00000000    0.00000048
     atom   18 type  1   force =     0.00000057    0.00000000    0.00000048
     atom   19 type  1   force =    -0.00000078   -0.00000000   -0.00000142
     atom   20 type  1   force =     0.00000078   -0.00000000   -0.00000142
     atom   21 type  1   force =    -0.00000000    0.00000081    0.00000042
     atom   22 type  1   force =     0.00000000   -0.00000081    0.00000042
     atom   23 type  1   force =    -0.00000000    0.00000067   -0.00000092
     atom   24 type  1   force =    -0.00000000   -0.00000067   -0.00000092

     Total force =     0.003629     Total SCF correction =     0.000009


     Computing stress (Cartesian axis) and pressure

          total   stress  (Ry/bohr**3)                   (kbar)     P=       13.89
   0.00009466   0.00000000   0.00000000           13.92        0.00        0.00
   0.00000000   0.00009466   0.00000000            0.00       13.92        0.00
   0.00000000   0.00000000   0.00009398            0.00        0.00       13.82

     kinetic stress (kbar)   2398.09      0.00      0.00
                                0.00   2398.09      0.00
                                0.00      0.00   2404.84

     local   stress (kbar)  -2294.38      0.00     -0.00
                                0.00  -2294.38     -0.00
                               -0.00     -0.00  -2468.50

     nonloc. stress (kbar)   3110.17     -0.00      0.00
                               -0.00   3110.17      0.00
                                0.00      0.00   3104.37

     hartree stress (kbar)    519.29     -0.00      0.00
                               -0.00    519.29      0.00
                                0.00      0.00    609.62

     exc-cor stress (kbar)   4108.81     -0.00      0.00
                               -0.00   4108.81     -0.00
                                0.00     -0.00   4108.16

     corecor stress (kbar)  -5140.32      0.00     -0.00
                                0.00  -5140.32      0.00
                               -0.00      0.00  -5139.45

     ewald   stress (kbar)  -2687.72     -0.00     -0.00
                               -0.00  -2687.72     -0.00
                               -0.00     -0.00  -2605.22

     hubbard stress (kbar)      0.00      0.00      0.00
                                0.00      0.00      0.00
                                0.00      0.00      0.00

     DFT-D   stress (kbar)      0.00      0.00      0.00
                                0.00      0.00      0.00
                                0.00      0.00      0.00

     XDM     stress (kbar)      0.00      0.00      0.00
                                0.00      0.00      0.00
                                0.00      0.00      0.00

     dft-nl  stress (kbar)      0.00      0.00      0.00
                                0.00      0.00      0.00
                                0.00      0.00      0.00

     TS-vdW  stress (kbar)      0.00      0.00      0.00
                                0.00      0.00      0.00
                                0.00      0.00      0.00



     BFGS Geometry Optimization
     Energy error            =      0.0E+00
     Gradient error          =      7.2E-04
     Cell gradient error     =      9.5E-05


     number of scf cycles    =   1
     number of bfgs steps    =   0

     enthalpy new            =    -429.3141817335 Ry

     new trust radius        =       0.0252891156 bohr
     new conv_thr            =       0.0000000100 Ry

     new unit-cell volume =   2875.36033 a.u.^3 (   426.08444 Ang^3 )
     density =      2.55526 g/cm^3

CELL_PARAMETERS (alat= 10.36431716)
   1.002366430   0.000000000   0.000000000
   0.000000000   1.002366430   0.000000000
   0.000000000   0.000000000   2.570497386

ATOMIC_POSITIONS (crystal)
Al            0.0000000000        0.0000000000        0.0000000000
Al            0.0000000000        0.5000000000        0.2500000099
Al            0.5000000000        0.5000000000        0.5000000000
Al            0.5000000000        0.0000000000        0.7499999901
Cs            0.5000000000        0.5000000000        0.0000000000
Cs            0.5000000000        0.0000000000        0.2499999774
Cs            0.0000000000        0.0000000000        0.5000000000
Cs            0.0000000000        0.5000000000        0.7500000226
H             0.2461959864       -0.0000000000        0.0649954546
H             0.7538040136        0.0000000000        0.0649954546
H             0.2461959783        0.5000000000        0.1850045440
H             0.7538040217        0.5000000000        0.1850045440
H             0.0000000000        0.2538040162        0.3149954507
H            -0.0000000000        0.7461959838        0.3149954507
H             0.5000000000        0.2538040071        0.4350045418
H             0.5000000000        0.7461959929        0.4350045418
H             0.2538040071        0.5000000000        0.5649954582
H             0.7461959929        0.5000000000        0.5649954582
H             0.2538040162        0.0000000000        0.6850045493
H             0.7461959838       -0.0000000000        0.6850045493
H             0.5000000000        0.2461959783        0.8149954560
H             0.5000000000        0.7538040217        0.8149954560
H             0.0000000000        0.2461959864        0.9350045454
H             0.0000000000        0.7538040136        0.9350045454



     Writing output data file ./CsAlH4_optgeo.save/
     NEW-OLD atomic charge density approx. for the potential
     extrapolated charge   64.44996, renormalised to   64.00000

     total cpu time spent up to now is      538.9 secs

     Self-consistent Calculation

     iteration #  1     ecut=    80.00 Ry     beta= 0.70
     Davidson diagonalization with overlap
     ethr =  1.00E-06,  avg # of iterations =  3.0

     total cpu time spent up to now is      597.1 secs

     total energy              =    -429.31468474 Ry
     estimated scf accuracy    <       0.00061280 Ry

     iteration #  2     ecut=    80.00 Ry     beta= 0.70
     Davidson diagonalization with overlap
     ethr =  9.58E-07,  avg # of iterations =  3.0

     total cpu time spent up to now is      660.5 secs

     total energy              =    -429.31602105 Ry
     estimated scf accuracy    <       0.00075640 Ry

     iteration #  3     ecut=    80.00 Ry     beta= 0.70
     Davidson diagonalization with overlap
     ethr =  9.58E-07,  avg # of iterations =  1.9

     total cpu time spent up to now is      699.7 secs

     total energy              =    -429.31598130 Ry
     estimated scf accuracy    <       0.00018919 Ry

     iteration #  4     ecut=    80.00 Ry     beta= 0.70
     Davidson diagonalization with overlap
     ethr =  2.96E-07,  avg # of iterations =  2.0

     total cpu time spent up to now is      741.4 secs

     total energy              =    -429.31597818 Ry
     estimated scf accuracy    <       0.00004076 Ry

     iteration #  5     ecut=    80.00 Ry     beta= 0.70
     Davidson diagonalization with overlap
     ethr =  6.37E-08,  avg # of iterations =  2.0

     total cpu time spent up to now is      782.8 secs

     total energy              =    -429.31597572 Ry
     estimated scf accuracy    <       0.00000787 Ry

     iteration #  6     ecut=    80.00 Ry     beta= 0.70
     Davidson diagonalization with overlap
     ethr =  1.23E-08,  avg # of iterations =  2.9

     total cpu time spent up to now is      834.2 secs

     total energy              =    -429.31597828 Ry
     estimated scf accuracy    <       0.00000029 Ry

     iteration #  7     ecut=    80.00 Ry     beta= 0.70
     Davidson diagonalization with overlap
     ethr =  4.49E-10,  avg # of iterations =  4.2

     total cpu time spent up to now is      890.5 secs

     total energy              =    -429.31597837 Ry
     estimated scf accuracy    <       0.00000005 Ry

     iteration #  8     ecut=    80.00 Ry     beta= 0.70
     Davidson diagonalization with overlap
     ethr =  7.96E-11,  avg # of iterations =  2.5

     total cpu time spent up to now is      941.7 secs

     End of self-consistent calculation

          k = 0.0000 0.0000 0.0000 ( 34467 PWs)   bands (ev):

   -18.7972 -18.7669 -18.7669 -18.7363  -6.0505  -5.8216  -5.8216  -5.7669
    -5.7669  -5.6597  -5.6597  -5.6323  -5.6323  -5.5188  -5.5188  -5.4200
    -4.0455  -3.4765  -3.4765  -3.2970  -0.4020  -0.4020  -0.2558  -0.0214
    -0.0214  -0.0166   0.0170   0.0170   0.3373   0.3373   0.4014   0.4014
     4.6357   5.4179   5.4179   5.7066   5.7934   5.7934

     occupation numbers 
     1.0000   1.0000   1.0000   1.0000   1.0000   1.0000   1.0000   1.0000
     1.0000   1.0000   1.0000   1.0000   1.0000   1.0000   1.0000   1.0000
     1.0000   1.0000   1.0000   1.0000   1.0000   1.0000   1.0000   1.0000
     1.0000   1.0000   1.0000   1.0000   1.0000   1.0000   1.0000   1.0000
     0.0000   0.0000   0.0000   0.0000   0.0000   0.0000

          k = 0.0000 0.0000 0.0556 ( 34427 PWs)   bands (ev):

   -18.7965 -18.7737 -18.7602 -18.7371  -6.0458  -5.8813  -5.7640  -5.7640
    -5.7548  -5.6765  -5.6765  -5.6152  -5.6152  -5.5220  -5.5220  -5.4351
    -4.0242  -3.5645  -3.4070  -3.2976  -0.4141  -0.3639  -0.2656  -0.0334
    -0.0196  -0.0196   0.0149   0.0149   0.3406   0.3406   0.3984   0.3984
     4.6479   5.1941   5.6732   5.7534   5.8234   5.8234

     occupation numbers 
     1.0000   1.0000   1.0000   1.0000   1.0000   1.0000   1.0000   1.0000
     1.0000   1.0000   1.0000   1.0000   1.0000   1.0000   1.0000   1.0000
     1.0000   1.0000   1.0000   1.0000   1.0000   1.0000   1.0000   1.0000
     1.0000   1.0000   1.0000   1.0000   1.0000   1.0000   1.0000   1.0000
     0.0000   0.0000   0.0000   0.0000   0.0000   0.0000

          k = 0.0000 0.0000 0.1112 ( 34436 PWs)   bands (ev):

   -18.7942 -18.7801 -18.7537 -18.7394  -6.0316  -5.9327  -5.7554  -5.7554
    -5.7006  -5.7006  -5.6828  -5.5902  -5.5902  -5.5315  -5.5315  -5.4772
    -3.9647  -3.6662  -3.3574  -3.3005  -0.4015  -0.3032  -0.2927  -0.0808
    -0.0147  -0.0147   0.0091   0.0091   0.3498   0.3498   0.3897   0.3897
     4.6863   5.0080   5.8877   5.9117   5.9117   5.9453

     occupation numbers 
     1.0000   1.0000   1.0000   1.0000   1.0000   1.0000   1.0000   1.0000
     1.0000   1.0000   1.0000   1.0000   1.0000   1.0000   1.0000   1.0000
     1.0000   1.0000   1.0000   1.0000   1.0000   1.0000   1.0000   1.0000
     1.0000   1.0000   1.0000   1.0000   1.0000   1.0000   1.0000   1.0000
     0.0000   0.0000   0.0000   0.0000   0.0000   0.0000

          k = 0.0000 0.0000 0.1667 ( 34508 PWs)   bands (ev):

   -18.7906 -18.7859 -18.7479 -18.7430  -6.0080  -5.9750  -5.7414  -5.7414
    -5.7228  -5.7228  -5.6088  -5.5667  -5.5667  -5.5467  -5.5467  -5.5380
    -3.8771  -3.7737  -3.3259  -3.3085  -0.3706  -0.3308  -0.2281  -0.1497
    -0.0073  -0.0073   0.0012   0.0012   0.3628   0.3628   0.3770   0.3770
     4.7560   4.8622   6.0535   6.0539   6.0816   6.1664

     occupation numbers 
     1.0000   1.0000   1.0000   1.0000   1.0000   1.0000   1.0000   1.0000
     1.0000   1.0000   1.0000   1.0000   1.0000   1.0000   1.0000   1.0000
[...]
      -> PAW xc energy AE      =    -110.29331820 Ry
      -> PAW xc energy PS      =       6.18701186 Ry
      -> total E_H with PAW    =      34.76498399 Ry
      -> total E_XC with PAW   =    -246.53931788 Ry

     convergence has been achieved in   9 iterations

     Forces acting on atoms (cartesian axes, Ry/au):

     atom    1 type  2   force =     0.00000000    0.00000000    0.00000000
     atom    2 type  2   force =     0.00000000    0.00000000    0.00000040
     atom    3 type  2   force =     0.00000000    0.00000000    0.00000000
     atom    4 type  2   force =     0.00000000    0.00000000   -0.00000040
     atom    5 type  3   force =     0.00000000    0.00000000    0.00000000
     atom    6 type  3   force =     0.00000000    0.00000000    0.00000103
     atom    7 type  3   force =     0.00000000    0.00000000    0.00000000
     atom    8 type  3   force =     0.00000000    0.00000000   -0.00000103
     atom    9 type  1   force =     0.00004318    0.00000000    0.00008355
     atom   10 type  1   force =    -0.00004318    0.00000000    0.00008355
     atom   11 type  1   force =     0.00004307    0.00000000   -0.00008333
     atom   12 type  1   force =    -0.00004307    0.00000000   -0.00008333
     atom   13 type  1   force =    -0.00000000   -0.00004299    0.00008349
     atom   14 type  1   force =     0.00000000    0.00004299    0.00008349
     atom   15 type  1   force =     0.00000000   -0.00004302   -0.00008342
     atom   16 type  1   force =     0.00000000    0.00004302   -0.00008342
     atom   17 type  1   force =    -0.00004302    0.00000000    0.00008342
     atom   18 type  1   force =     0.00004302   -0.00000000    0.00008342
     atom   19 type  1   force =    -0.00004299    0.00000000   -0.00008349
     atom   20 type  1   force =     0.00004299   -0.00000000   -0.00008349
     atom   21 type  1   force =    -0.00000000    0.00004307    0.00008333
     atom   22 type  1   force =     0.00000000   -0.00004307    0.00008333
     atom   23 type  1   force =    -0.00000000    0.00004318   -0.00008355
     atom   24 type  1   force =    -0.00000000   -0.00004318   -0.00008355
     The non-local contrib.  to forces
     atom    1 type  2   force =     0.00000000    0.00000000    0.00000000
     atom    2 type  2   force =     0.00000000    0.00000000   -0.00000000
     atom    3 type  2   force =     0.00000000    0.00000000    0.00000000
     atom    4 type  2   force =     0.00000000    0.00000000    0.00000000
     atom    5 type  3   force =     0.00000000    0.00000000    0.00000000
     atom    6 type  3   force =     0.00000000    0.00000000   -0.00000074
     atom    7 type  3   force =     0.00000000    0.00000000    0.00000000
     atom    8 type  3   force =     0.00000000    0.00000000    0.00000074
     atom    9 type  1   force =    -0.01948952    0.00000000   -0.01329534
     atom   10 type  1   force =     0.01948952   -0.00000000   -0.01329534
     atom   11 type  1   force =    -0.01948955    0.00000000    0.01329537
     atom   12 type  1   force =     0.01948955    0.00000000    0.01329537
     atom   13 type  1   force =    -0.00000000    0.01948956   -0.01329537
     atom   14 type  1   force =    -0.00000000   -0.01948956   -0.01329537
     atom   15 type  1   force =    -0.00000000    0.01948955    0.01329536
     atom   16 type  1   force =     0.00000000   -0.01948955    0.01329536
     atom   17 type  1   force =     0.01948955    0.00000000   -0.01329536
     atom   18 type  1   force =    -0.01948955   -0.00000000   -0.01329536
     atom   19 type  1   force =     0.01948956    0.00000000    0.01329537
     atom   20 type  1   force =    -0.01948956   -0.00000000    0.01329537
     atom   21 type  1   force =     0.00000000   -0.01948955   -0.01329537
     atom   22 type  1   force =    -0.00000000    0.01948955   -0.01329537
     atom   23 type  1   force =    -0.00000000   -0.01948952    0.01329534
     atom   24 type  1   force =     0.00000000    0.01948952    0.01329534
     The ionic contribution  to forces
     atom    1 type  2   force =    -0.00000000   -0.00000000   -0.00000000
     atom    2 type  2   force =     0.00000000   -0.00000000    0.00000127
     atom    3 type  2   force =    -0.00000000   -0.00000000   -0.00000000
     atom    4 type  2   force =     0.00000000    0.00000000   -0.00000127
     atom    5 type  3   force =    -0.00000000   -0.00000000    0.00000000
     atom    6 type  3   force =    -0.00000000    0.00000000    0.00000387
     atom    7 type  3   force =     0.00000000    0.00000000   -0.00000000
     atom    8 type  3   force =     0.00000000   -0.00000000   -0.00000387
     atom    9 type  1   force =     0.23279115    0.00000000    0.21294155
     atom   10 type  1   force =    -0.23279115   -0.00000000    0.21294155
     atom   11 type  1   force =     0.23279124    0.00000000   -0.21294136
     atom   12 type  1   force =    -0.23279124   -0.00000000   -0.21294136
     atom   13 type  1   force =     0.00000000   -0.23279133    0.21294192
     atom   14 type  1   force =     0.00000000    0.23279133    0.21294192
     atom   15 type  1   force =    -0.00000000   -0.23279130   -0.21294164
     atom   16 type  1   force =    -0.00000000    0.23279130   -0.21294164
     atom   17 type  1   force =    -0.23279130   -0.00000000    0.21294164
     atom   18 type  1   force =     0.23279130   -0.00000000    0.21294164
     atom   19 type  1   force =    -0.23279133   -0.00000000   -0.21294192
     atom   20 type  1   force =     0.23279133    0.00000000   -0.21294192
     atom   21 type  1   force =    -0.00000000    0.23279124    0.21294136
     atom   22 type  1   force =    -0.00000000   -0.23279124    0.21294136
     atom   23 type  1   force =     0.00000000    0.23279115   -0.21294155
     atom   24 type  1   force =     0.00000000   -0.23279115   -0.21294155
     The local contribution  to forces
     atom    1 type  2   force =     0.00000000   -0.00000000    0.00000000
     atom    2 type  2   force =     0.00000000   -0.00000000   -0.00000099
     atom    3 type  2   force =    -0.00000000   -0.00000000   -0.00000000
     atom    4 type  2   force =    -0.00000000    0.00000000    0.00000099
     atom    5 type  3   force =    -0.00000000   -0.00000000    0.00000000
     atom    6 type  3   force =    -0.00000000    0.00000000   -0.00000490
     atom    7 type  3   force =     0.00000000    0.00000000   -0.00000000
     atom    8 type  3   force =     0.00000000   -0.00000000    0.00000490
     atom    9 type  1   force =    -0.21325788    0.00000000   -0.19956230
     atom   10 type  1   force =     0.21325788   -0.00000000   -0.19956230
     atom   11 type  1   force =    -0.21325865   -0.00000000    0.19956281
     atom   12 type  1   force =     0.21325865   -0.00000000    0.19956281
     atom   13 type  1   force =     0.00000000    0.21325892   -0.19956336
     atom   14 type  1   force =    -0.00000000   -0.21325892   -0.19956336
     atom   15 type  1   force =    -0.00000000    0.21325881    0.19956288
     atom   16 type  1   force =    -0.00000000   -0.21325881    0.19956288
     atom   17 type  1   force =     0.21325881   -0.00000000   -0.19956288
     atom   18 type  1   force =    -0.21325881   -0.00000000   -0.19956288
     atom   19 type  1   force =     0.21325892    0.00000000    0.19956336
     atom   20 type  1   force =    -0.21325892   -0.00000000    0.19956336
     atom   21 type  1   force =    -0.00000000   -0.21325865   -0.19956281
     atom   22 type  1   force =    -0.00000000    0.21325865   -0.19956281
     atom   23 type  1   force =     0.00000000   -0.21325788    0.19956230
     atom   24 type  1   force =    -0.00000000    0.21325788    0.19956230
     The core correction contribution to forces
     atom    1 type  2   force =     0.00000000    0.00000000    0.00000000
     atom    2 type  2   force =     0.00000000    0.00000000    0.00000001
     atom    3 type  2   force =     0.00000000    0.00000000    0.00000000
     atom    4 type  2   force =     0.00000000    0.00000000   -0.00000001
     atom    5 type  3   force =     0.00000000    0.00000000    0.00000000
     atom    6 type  3   force =     0.00000000    0.00000000    0.00000012
     atom    7 type  3   force =     0.00000000    0.00000000    0.00000000
     atom    8 type  3   force =     0.00000000    0.00000000   -0.00000012
     atom    9 type  1   force =     0.00000000    0.00000000    0.00000000
     atom   10 type  1   force =     0.00000000    0.00000000    0.00000000
     atom   11 type  1   force =     0.00000000    0.00000000    0.00000000
     atom   12 type  1   force =     0.00000000    0.00000000    0.00000000
     atom   13 type  1   force =     0.00000000    0.00000000    0.00000000
     atom   14 type  1   force =     0.00000000    0.00000000    0.00000000
     atom   15 type  1   force =     0.00000000    0.00000000    0.00000000
     atom   16 type  1   force =     0.00000000    0.00000000    0.00000000
     atom   17 type  1   force =     0.00000000    0.00000000    0.00000000
     atom   18 type  1   force =     0.00000000    0.00000000    0.00000000
     atom   19 type  1   force =     0.00000000    0.00000000    0.00000000
     atom   20 type  1   force =     0.00000000    0.00000000    0.00000000
     atom   21 type  1   force =     0.00000000    0.00000000    0.00000000
     atom   22 type  1   force =     0.00000000    0.00000000    0.00000000
     atom   23 type  1   force =     0.00000000    0.00000000    0.00000000
     atom   24 type  1   force =     0.00000000    0.00000000    0.00000000
     The Hubbard contrib.    to forces
     atom    1 type  2   force =     0.00000000    0.00000000    0.00000000
     atom    2 type  2   force =     0.00000000    0.00000000    0.00000000
     atom    3 type  2   force =     0.00000000    0.00000000    0.00000000
     atom    4 type  2   force =     0.00000000    0.00000000    0.00000000
     atom    5 type  3   force =     0.00000000    0.00000000    0.00000000
     atom    6 type  3   force =     0.00000000    0.00000000    0.00000000
     atom    7 type  3   force =     0.00000000    0.00000000    0.00000000
     atom    8 type  3   force =     0.00000000    0.00000000    0.00000000
     atom    9 type  1   force =     0.00000000    0.00000000    0.00000000
     atom   10 type  1   force =     0.00000000    0.00000000    0.00000000
     atom   11 type  1   force =     0.00000000    0.00000000    0.00000000
     atom   12 type  1   force =     0.00000000    0.00000000    0.00000000
     atom   13 type  1   force =     0.00000000    0.00000000    0.00000000
     atom   14 type  1   force =     0.00000000    0.00000000    0.00000000
     atom   15 type  1   force =     0.00000000    0.00000000    0.00000000
     atom   16 type  1   force =     0.00000000    0.00000000    0.00000000
     atom   17 type  1   force =     0.00000000    0.00000000    0.00000000
     atom   18 type  1   force =     0.00000000    0.00000000    0.00000000
     atom   19 type  1   force =     0.00000000    0.00000000    0.00000000
     atom   20 type  1   force =     0.00000000    0.00000000    0.00000000
     atom   21 type  1   force =     0.00000000    0.00000000    0.00000000
     atom   22 type  1   force =     0.00000000    0.00000000    0.00000000
     atom   23 type  1   force =     0.00000000    0.00000000    0.00000000
     atom   24 type  1   force =     0.00000000    0.00000000    0.00000000
     The SCF correction term to forces
     atom    1 type  2   force =     0.00000000   -0.00000000    0.00000000
     atom    2 type  2   force =    -0.00000000   -0.00000000    0.00000012
     atom    3 type  2   force =     0.00000000   -0.00000000    0.00000000
     atom    4 type  2   force =    -0.00000000   -0.00000000   -0.00000012
     atom    5 type  3   force =    -0.00000000    0.00000000    0.00000000
     atom    6 type  3   force =     0.00000000   -0.00000000    0.00000269
     atom    7 type  3   force =    -0.00000000    0.00000000    0.00000000
     atom    8 type  3   force =     0.00000000   -0.00000000   -0.00000269
     atom    9 type  1   force =    -0.00000057   -0.00000000   -0.00000036
     atom   10 type  1   force =     0.00000057   -0.00000000   -0.00000036
     atom   11 type  1   force =     0.00000004    0.00000000   -0.00000015
     atom   12 type  1   force =    -0.00000004   -0.00000000   -0.00000015
     atom   13 type  1   force =     0.00000000   -0.00000015    0.00000031
     atom   14 type  1   force =    -0.00000000    0.00000015    0.00000031
     atom   15 type  1   force =     0.00000000   -0.00000009   -0.00000001
     atom   16 type  1   force =     0.00000000    0.00000009   -0.00000001
     atom   17 type  1   force =    -0.00000009   -0.00000000    0.00000001
     atom   18 type  1   force =     0.00000009   -0.00000000    0.00000001
     atom   19 type  1   force =    -0.00000015    0.00000000   -0.00000031
     atom   20 type  1   force =     0.00000015   -0.00000000   -0.00000031
     atom   21 type  1   force =     0.00000000    0.00000004    0.00000015
     atom   22 type  1   force =    -0.00000000   -0.00000004    0.00000015
     atom   23 type  1   force =     0.00000000   -0.00000057    0.00000036
     atom   24 type  1   force =     0.00000000    0.00000057    0.00000036

     Total force =     0.000376     Total SCF correction =     0.000004


     Computing stress (Cartesian axis) and pressure

          total   stress  (Ry/bohr**3)                   (kbar)     P=        0.00
  -0.00000153   0.00000000   0.00000000           -0.23        0.00        0.00
   0.00000000  -0.00000153   0.00000000            0.00       -0.23        0.00
   0.00000000   0.00000000   0.00000316            0.00        0.00        0.46

     kinetic stress (kbar)   2124.07     -0.00      0.00
                               -0.00   2124.07      0.00
                                0.00      0.00   2128.73

     local   stress (kbar)  -2214.41      0.00      0.00
                                0.00  -2214.41     -0.00
                                0.00     -0.00  -2267.93

     nonloc. stress (kbar)   2768.97     -0.00      0.00
                               -0.00   2768.97      0.00
                                0.00      0.00   2765.06

     hartree stress (kbar)    518.60      0.00     -0.00
                                0.00    518.60      0.00
                               -0.00      0.00    559.47

     exc-cor stress (kbar)   3666.85      0.00     -0.00
                                0.00   3666.85     -0.00
                               -0.00     -0.00   3666.08

     corecor stress (kbar)  -4583.65     -0.00     -0.00
                               -0.00  -4583.65      0.00
                               -0.00     -0.00  -4582.97

     ewald   stress (kbar)  -2280.64     -0.00      0.00
                               -0.00  -2280.64     -0.00
                                0.00     -0.00  -2267.97

     hubbard stress (kbar)      0.00      0.00      0.00
                                0.00      0.00      0.00
                                0.00      0.00      0.00

     DFT-D   stress (kbar)      0.00      0.00      0.00
                                0.00      0.00      0.00
                                0.00      0.00      0.00

     XDM     stress (kbar)      0.00      0.00      0.00
                                0.00      0.00      0.00
                                0.00      0.00      0.00

     dft-nl  stress (kbar)      0.00      0.00      0.00
                                0.00      0.00      0.00
                                0.00      0.00      0.00

     TS-vdW  stress (kbar)      0.00      0.00      0.00
                                0.00      0.00      0.00
                                0.00      0.00      0.00



     Writing output data file ./CsAlH4_optgeo.save/

     init_run     :     84.16s CPU     85.24s WALL (       2 calls)
     electrons    :   6543.39s CPU   6612.11s WALL (      12 calls)
     update_pot   :     63.86s CPU     63.93s WALL (      10 calls)
     forces       :    233.78s CPU    235.77s WALL (      12 calls)
     stress       :    341.37s CPU    344.10s WALL (      12 calls)

     Called by init_run:
     wfcinit      :     72.13s CPU     72.82s WALL (       2 calls)
     wfcinit:atom :      0.30s CPU      0.30s WALL (      80 calls)
     wfcinit:wfcr :     69.94s CPU     70.62s WALL (      80 calls)
     potinit      :      4.68s CPU      4.71s WALL (       2 calls)
     hinit0       :      6.16s CPU      6.19s WALL (       2 calls)

     Called by electrons:
     c_bands      :   5824.56s CPU   5865.77s WALL (     107 calls)
     sum_band     :    613.46s CPU    632.04s WALL (     107 calls)
     v_of_rho     :      9.81s CPU     10.08s WALL (     119 calls)
     v_h          :      0.66s CPU      0.68s WALL (     119 calls)
     v_xc         :     11.04s CPU     11.34s WALL (     143 calls)
     newd         :     56.70s CPU     66.68s WALL (     119 calls)
     PAW_pot      :     49.99s CPU     50.02s WALL (     129 calls)
     mix_rho      :      2.28s CPU      2.36s WALL (     107 calls)

     Called by c_bands:
     init_us_2    :     62.29s CPU     62.66s WALL (   10000 calls)
     cegterg      :   5654.64s CPU   5695.50s WALL (    4280 calls)

     Called by sum_band:
     sum_band:wei :      0.02s CPU      0.02s WALL (     107 calls)
     sum_band:loo :    552.46s CPU    559.19s WALL (     107 calls)
     sum_band:buf :      6.09s CPU      6.13s WALL (    4280 calls)
     sum_band:ini :     26.32s CPU     26.44s WALL (    4280 calls)
     sum_band:cal :    395.13s CPU    396.13s WALL (    4680 calls)
     sum_band:bec :      0.82s CPU      0.83s WALL (    4680 calls)
     addusdens    :     57.94s CPU     69.60s WALL (     107 calls)
     addusd:skk   :      0.55s CPU      0.57s WALL (     321 calls)
     addusd:dgemm :     32.57s CPU     44.17s WALL (     321 calls)
     addusd:qvan2 :     22.69s CPU     22.70s WALL (     321 calls)

     Called by *egterg:
     cdiaghg      :     50.12s CPU     50.28s WALL (   19971 calls)
     cegterg:over :    478.91s CPU    479.94s WALL (   16091 calls)
     cegterg:upda :    273.49s CPU    274.02s WALL (   16091 calls)
     cegterg:last :    649.05s CPU    650.08s WALL (   10819 calls)
     cdiaghg:chol :      3.69s CPU      3.71s WALL (   19971 calls)
     cdiaghg:inve :      0.51s CPU      0.51s WALL (   19971 calls)
     cdiaghg:para :     12.23s CPU     12.26s WALL (   39942 calls)
     h_psi        :   3043.82s CPU   3082.11s WALL (   20451 calls)
     s_psi        :   1068.14s CPU   1068.41s WALL (   20451 calls)
     g_psi        :     11.75s CPU     11.77s WALL (   16091 calls)

     Called by h_psi:
     h_psi:calbec :   1114.99s CPU   1119.60s WALL (   20451 calls)
     vloc_psi     :    809.79s CPU    843.19s WALL (   20451 calls)
     add_vuspsi   :   1109.44s CPU   1109.80s WALL (   20451 calls)

     General routines
     calbec       :   1718.84s CPU   1724.63s WALL (   27531 calls)
     fft          :      9.04s CPU      9.31s WALL (    1833 calls)
     ffts         :      0.57s CPU      0.58s WALL (     226 calls)
     fftw         :    834.34s CPU    868.18s WALL ( 1153346 calls)
     interpolate  :      0.84s CPU      0.87s WALL (     119 calls)

     Parallel routines
     fft_scatt_xy :    113.97s CPU    118.52s WALL ( 1155405 calls)
     fft_scatt_yz :    311.76s CPU    324.21s WALL ( 1155405 calls)

     PAW routines
     PAW_pot      :     49.99s CPU     50.02s WALL (     129 calls)
     PAW_symme    :      0.36s CPU      0.36s WALL (     236 calls)

     PWSCF        :      2h 1m CPU      2h 3m WALL


   This run was terminated on:  20:22:14  26Nov2023            

=------------------------------------------------------------------------------=
   JOB DONE.
=------------------------------------------------------------------------------=
