
     Program PWSCF v.7.1 starts on  8Dec2023 at 17:33:50 

     This program is part of the open-source Quantum ESPRESSO suite
     for quantum simulation of materials; please cite
         "P. Giannozzi et al., J. Phys.:Condens. Matter 21 395502 (2009);
         "P. Giannozzi et al., J. Phys.:Condens. Matter 29 465901 (2017);
         "P. Giannozzi et al., J. Chem. Phys. 152 154105 (2020);
          URL http://www.quantum-espresso.org", 
     in publications or presentations arising from this work. More details at
     http://www.quantum-espresso.org/quote

     Parallel version (MPI & OpenMP), running on      28 processor cores
     Number of MPI processes:                28
     Threads/MPI process:                     1

     MPI processes distributed on     1 nodes
     120236 MiB available memory on the printing compute node when the environment starts
 
     Reading input from Li3BH6_P1_opt.in

     Current dimensions of program PWSCF are:
     Max number of different atomic species (ntypx) = 10
     Max number of k-points (npk) =  40000
     Max angular momentum in pseudopotentials (lmaxx) =  4

     File ./Li3BH6_P1.update deleted, as requested

     File ./Li3BH6_P1.bfgs deleted, as requested

     IMPORTANT: XC functional enforced from input :
     Exchange-correlation= PBE
                           (   1   4   3   4   0   0   0)
     Any further DFT definition will be discarded
     Please, verify this is what you really want

 
     R & G space division:  proc/nbgrp/npool/nimage =      28
     Subspace diagonalization in iterative solution of the eigenvalue problem:
     a serial algorithm will be used

 
     Parallelization info
     --------------------
     sticks:   dense  smooth     PW     G-vecs:    dense   smooth      PW
     Min         171     171     46                11378    11378    1601
     Max         172     172     47                11383    11383    1604
     Sum        4811    4811   1291               318657   318657   44875
 
     Using Slab Decomposition
 


     bravais-lattice index     =            0
     lattice parameter (alat)  =       9.5787  a.u.
     unit-cell volume          =    1284.0519 (a.u.)^3
     number of atoms/cell      =           20
     number of atomic types    =            3
     number of electrons       =        36.00
     number of Kohn-Sham states=           22
     kinetic-energy cutoff     =     150.0000  Ry
     charge density cutoff     =     600.0000  Ry
     scf convergence threshold =      1.0E-08
     mixing beta               =       0.7000
     number of iterations used =            8  plain     mixing
     energy convergence thresh.=      1.0E-04
     force convergence thresh. =      1.0E-03
     press convergence thresh. =      5.0E-01
     Exchange-correlation= PBE
                           (   1   4   3   4   0   0   0)
     nstep                     =           50


     celldm(1)=   9.578700  celldm(2)=   0.000000  celldm(3)=   0.000000
     celldm(4)=   0.000000  celldm(5)=   0.000000  celldm(6)=   0.000000

     crystal axes: (cart. coord. in units of alat)
               a(1) = (   0.969046   0.059953  -0.039432 )  
               a(2) = (  -0.006352   1.127001  -0.101345 )  
               a(3) = (  -0.133595  -0.341639   1.372823 )  

     reciprocal axes: (cart. coord. in units 2 pi/alat)
               b(1) = (  1.035254  0.015235  0.104536 )  
               b(2) = ( -0.047112  0.906929  0.221112 )  
               b(3) = (  0.026258  0.067389  0.747752 )  


     PseudoPot. # 1 for B  read from file:
     /scratch/antwerpen/209/vsc20922/pseudos/b_pbe_v1.4.uspp.F.UPF
     MD5 check sum: cc6de2960df11db49a60e589f9ebb39b
     Pseudo is Ultrasoft + core correction, Zval =  3.0
     Generated by new atomic code, or converted to UPF format
     Using radial grid of  781 points,  4 beta functions with: 
                l(1) =   0
                l(2) =   0
                l(3) =   1
                l(4) =   1
     Q(r) pseudized with  8 coefficients,  rinner =    1.100   1.100   1.100


     PseudoPot. # 2 for Li read from file:
     /scratch/antwerpen/209/vsc20922/pseudos/li_pbe_v1.4.uspp.F.UPF
     MD5 check sum: e912e257baa3777c20ea3d68f190483c
     Pseudo is Ultrasoft, Zval =  3.0
     Generated by new atomic code, or converted to UPF format
     Using radial grid of  751 points,  5 beta functions with: 
                l(1) =   0
                l(2) =   0
                l(3) =   0
                l(4) =   1
                l(5) =   1
     Q(r) pseudized with 10 coefficients,  rinner =    1.150   1.150   1.150


     PseudoPot. # 3 for H  read from file:
     /scratch/antwerpen/209/vsc20922/pseudos/H.pbe-rrkjus_psl.1.0.0.UPF
     MD5 check sum: f52b6d4d1c606e5624b1dc7b2218f220
     Pseudo is Ultrasoft, Zval =  1.0
     Generated using "atomic" code by A. Dal Corso  v.5.1
     Using radial grid of  929 points,  2 beta functions with: 
                l(1) =   0
                l(2) =   0
     Q(r) pseudized with 0 coefficients 


     atomic species   valence    mass     pseudopotential
        B              3.00    10.81350     B ( 1.00)
        Li             3.00     6.96750     Li( 1.00)
        H              1.00     1.00750     H ( 1.00)

     No symmetry found



   Cartesian axes

     site n.     atom                  positions (alat units)
         1           B   tau(   1) = (   0.2988376   0.2381446   0.7075219  )
         2           B   tau(   2) = (   0.0698212  -0.1788511   1.2531788  )
         3           Li  tau(   3) = (   0.4432283   0.9704197   0.8289072  )
         4           Li  tau(   4) = (   0.4745596   0.5791872   0.4069021  )
         5           Li  tau(   5) = (  -0.0050486   0.5802211   0.7140462  )
         6           Li  tau(   6) = (   0.8039431   0.1079646   0.6730973  )
         7           Li  tau(   7) = (   0.1438908   0.2990783   1.1768472  )
         8           Li  tau(   8) = (   0.3401623   0.0055828   0.3166576  )
         9           H   tau(   9) = (   0.3477838   0.7822875   0.1358082  )
        10           H   tau(  10) = (   0.4263136   0.2092640   0.9180928  )
        11           H   tau(  11) = (   0.1582691   0.7824265   0.9987704  )
        12           H   tau(  12) = (   0.2261945   0.0020936   0.6614659  )
        13           H   tau(  13) = (   0.8850423   0.0309944   1.1011684  )
        14           H   tau(  14) = (   0.6675602   0.4937201   1.0309563  )
        15           H   tau(  15) = (   0.7469121   0.5833080   0.1248303  )
        16           H   tau(  16) = (   0.6934287   0.5776472   1.1529928  )
        17           H   tau(  17) = (   1.0470251   0.1088936   0.0124046  )
        18           H   tau(  18) = (   0.3887743   0.2871049  -0.0227320  )
        19           H   tau(  19) = (  -0.1329270   0.4398989   0.2522817  )
        20           H   tau(  20) = (   0.6881229   0.8494193   0.5946359  )

     number of k points=   172  Marzari-Vanderbilt smearing, width (Ry)=  0.0050

     Number of k-points >= 100: set verbosity='high' to print them.

     Dense  grid:   318657 G-vectors     FFT dimensions: (  75,  90, 108)

     Estimated max dynamical RAM per process >     111.99 MB

     Estimated total dynamical RAM >       3.06 GB

     Initial potential from superposition of free atoms

     starting charge      33.2949, renormalised to      36.0000
     Starting wfcs are   50 randomized atomic wfcs

     total cpu time spent up to now is       10.7 secs

     Self-consistent Calculation

     iteration #  1     ecut=   150.00 Ry     beta= 0.70
     Davidson diagonalization with overlap
     ethr =  1.00E-02,  avg # of iterations =  2.0

     total cpu time spent up to now is       23.8 secs

     total energy              =    -113.43748172 Ry
     estimated scf accuracy    <       1.35522376 Ry

     iteration #  2     ecut=   150.00 Ry     beta= 0.70
     Davidson diagonalization with overlap
     ethr =  3.76E-03,  avg # of iterations =  3.7

     total cpu time spent up to now is       37.7 secs

     total energy              =    -113.61079056 Ry
     estimated scf accuracy    <       0.72022095 Ry

     iteration #  3     ecut=   150.00 Ry     beta= 0.70
     Davidson diagonalization with overlap
     ethr =  2.00E-03,  avg # of iterations =  3.8

     total cpu time spent up to now is       50.8 secs

     total energy              =    -113.80252043 Ry
     estimated scf accuracy    <       0.04982905 Ry

     iteration #  4     ecut=   150.00 Ry     beta= 0.70
     Davidson diagonalization with overlap
     ethr =  1.38E-04,  avg # of iterations =  6.4

     total cpu time spent up to now is       66.7 secs

     total energy              =    -113.81167914 Ry
     estimated scf accuracy    <       0.00485535 Ry

     iteration #  5     ecut=   150.00 Ry     beta= 0.70
     Davidson diagonalization with overlap
     c_bands:  1 eigenvalues not converged
     c_bands:  1 eigenvalues not converged
     c_bands:  1 eigenvalues not converged
     c_bands:  1 eigenvalues not converged
     c_bands:  1 eigenvalues not converged
     c_bands:  1 eigenvalues not converged
     c_bands:  1 eigenvalues not converged
     c_bands:  1 eigenvalues not converged
     c_bands:  1 eigenvalues not converged
     c_bands:  1 eigenvalues not converged
     c_bands:  1 eigenvalues not converged
     c_bands:  1 eigenvalues not converged
     ethr =  1.35E-05,  avg # of iterations = 10.4

     total cpu time spent up to now is       89.3 secs

     total energy              =    -113.81416746 Ry
     estimated scf accuracy    <       0.00072556 Ry

     iteration #  6     ecut=   150.00 Ry     beta= 0.70
     Davidson diagonalization with overlap
     c_bands:  1 eigenvalues not converged
     ethr =  2.02E-06,  avg # of iterations =  8.0

     total cpu time spent up to now is      107.2 secs

     total energy              =    -113.81430499 Ry
     estimated scf accuracy    <       0.00009813 Ry

     iteration #  7     ecut=   150.00 Ry     beta= 0.70
     Davidson diagonalization with overlap
     ethr =  2.73E-07,  avg # of iterations =  4.1

     total cpu time spent up to now is      122.6 secs

     total energy              =    -113.81435188 Ry
     estimated scf accuracy    <       0.00002664 Ry

     iteration #  8     ecut=   150.00 Ry     beta= 0.70
     Davidson diagonalization with overlap
     ethr =  7.40E-08,  avg # of iterations =  2.2

     total cpu time spent up to now is      134.9 secs

     total energy              =    -113.81435397 Ry
     estimated scf accuracy    <       0.00000387 Ry

     iteration #  9     ecut=   150.00 Ry     beta= 0.70
     Davidson diagonalization with overlap
     ethr =  1.08E-08,  avg # of iterations =  4.1

     total cpu time spent up to now is      151.3 secs

     total energy              =    -113.81435618 Ry
     estimated scf accuracy    <       0.00000089 Ry

     iteration # 10     ecut=   150.00 Ry     beta= 0.70
     Davidson diagonalization with overlap
     ethr =  2.48E-09,  avg # of iterations =  2.6

     total cpu time spent up to now is      164.2 secs

     total energy              =    -113.81435625 Ry
     estimated scf accuracy    <       0.00000016 Ry

     iteration # 11     ecut=   150.00 Ry     beta= 0.70
     Davidson diagonalization with overlap
     ethr =  4.50E-10,  avg # of iterations =  4.3

     total cpu time spent up to now is      180.5 secs

     total energy              =    -113.81435634 Ry
     estimated scf accuracy    <       0.00000003 Ry

     iteration # 12     ecut=   150.00 Ry     beta= 0.70
     Davidson diagonalization with overlap
     ethr =  7.53E-11,  avg # of iterations =  3.8

     total cpu time spent up to now is      195.4 secs

     End of self-consistent calculation

     Number of k-points >= 100: set verbosity='high' to print the bands.

     the Fermi energy is     1.7904 ev

!    total energy              =    -113.81435635 Ry
     estimated scf accuracy    <          1.0E-09 Ry
     smearing contrib. (-TS)   =       0.00000000 Ry
     internal energy E=F+TS    =    -113.81435635 Ry

     The total energy is F=E-TS. E is the sum of the following terms:
     one-electron contribution =     -64.81207409 Ry
     hartree contribution      =      30.62132071 Ry
     xc contribution           =     -34.92265159 Ry
     ewald contribution        =     -44.70095139 Ry

     convergence has been achieved in  12 iterations

     Forces acting on atoms (cartesian axes, Ry/au):

     atom    1 type  1   force =    -0.00030301   -0.00101984   -0.00031982
     atom    2 type  1   force =     0.00002063    0.00010962   -0.00076594
     atom    3 type  2   force =    -0.00215101    0.00008762   -0.00051545
     atom    4 type  2   force =     0.00104668   -0.00093791    0.00098332
     atom    5 type  2   force =    -0.00167076    0.00355622   -0.00021786
     atom    6 type  2   force =     0.00027762   -0.00073073    0.00045832
     atom    7 type  2   force =     0.00110448   -0.00013020    0.00196455
     atom    8 type  2   force =     0.00130225   -0.00048615   -0.00065330
     atom    9 type  3   force =     0.00024150   -0.00142306   -0.00215437
     atom   10 type  3   force =    -0.00021994    0.00188951    0.00064918
     atom   11 type  3   force =    -0.00388937    0.00062477    0.00238871
     atom   12 type  3   force =    -0.00074420    0.00024956   -0.00046570
     atom   13 type  3   force =     0.00228956   -0.00017146   -0.00038650
     atom   14 type  3   force =     0.00004025    0.00061663    0.00156158
     atom   15 type  3   force =     0.00143973    0.00065178    0.00131866
     atom   16 type  3   force =     0.00033446   -0.00130543   -0.00005300
     atom   17 type  3   force =     0.00319817    0.00144178   -0.00199352
     atom   18 type  3   force =    -0.00098851   -0.00155975   -0.00070476
     atom   19 type  3   force =    -0.00167503   -0.00069193   -0.00041918
     atom   20 type  3   force =     0.00034651   -0.00077103   -0.00067492

     Total force =     0.010265     Total SCF correction =     0.000021


     Computing stress (Cartesian axis) and pressure

          total   stress  (Ry/bohr**3)                   (kbar)     P=       -1.02
  -0.00002662   0.00000844   0.00000905           -3.92        1.24        1.33
   0.00000844   0.00000405   0.00000932            1.24        0.60        1.37
   0.00000905   0.00000932   0.00000179            1.33        1.37        0.26


     BFGS Geometry Optimization
     Energy error            =      0.0E+00 Ry
     Gradient error          =      3.9E-03 Ry/Bohr
     Cell gradient error     =      3.9E+00 kbar

     number of scf cycles    =   1
     number of bfgs steps    =   0

     enthalpy           new  =    -113.8143563523 Ry

     new trust radius        =       0.0052601714 bohr
     new conv_thr            =       0.0000000100 Ry

     new unit-cell volume =   1283.38436 a.u.^3 (   190.17794 Ang^3 )
     density =      0.65942 g/cm^3

CELL_PARAMETERS (alat=  9.57870047)
   0.968404960   0.060154172  -0.039200415
  -0.006132899   1.127090017  -0.101088187
  -0.133267398  -0.341381919   1.372774616

ATOMIC_POSITIONS (crystal)
B             0.3869245862        0.3582406437        0.5529128732
B             0.2005542246        0.1115914463        0.9267882977
Li            0.5600509959        1.0425085726        0.6968051107
Li            0.5427718547        0.5928236701        0.3558265673
Li            0.0780794362        0.6846814260        0.5729006452
Li            0.9043266071        0.2088107206        0.5317264479
Li            0.2766835576        0.5247068363        0.9040777874
Li            0.3854743000        0.0589868128        0.2460385416
H             0.3861599129        0.7229372380        0.1632229806
H             0.5404909624        0.3728995725        0.7118649255
H             0.2797832575        0.9231226559        0.8038952790
H             0.3032625142        0.1375171263        0.5006560041
H             1.0320702449        0.2298589293        0.8487033737
H             0.8064105062        0.6443701264        0.8218256914
H             0.7953506292        0.5215165560        0.1523744334
H             0.8472379782        0.7460303107        0.9192749331
H             1.0872184807        0.0522484445        0.0439696799
H             0.4043608141        0.2368821377        0.0124895297
H            -0.1047253768        0.4609351047        0.2147558899
H             0.7875125142        0.8693346693        0.5198930087



     Writing config-only to output data dir ./Li3BH6_P1.save/
     NEW-OLD atomic charge density approx. for the potential
     extrapolated charge   35.98268, renormalised to   36.00000

     total cpu time spent up to now is      205.2 secs

     Self-consistent Calculation

     iteration #  1     ecut=   150.00 Ry     beta= 0.70
     Davidson diagonalization with overlap
     ethr =  1.00E-06,  avg # of iterations =  3.0

     Threshold (ethr) on eigenvalues was too large:
     Diagonalizing with lowered threshold

     Davidson diagonalization with overlap
     ethr =  3.59E-08,  avg # of iterations =  4.0

     total cpu time spent up to now is      234.8 secs

     total energy              =    -113.81447291 Ry
     estimated scf accuracy    <       0.00001900 Ry

     iteration #  2     ecut=   150.00 Ry     beta= 0.70
     Davidson diagonalization with overlap
     ethr =  5.28E-08,  avg # of iterations =  3.2

     total cpu time spent up to now is      249.0 secs

     total energy              =    -113.81448225 Ry
     estimated scf accuracy    <       0.00001435 Ry

     iteration #  3     ecut=   150.00 Ry     beta= 0.70
     Davidson diagonalization with overlap
     ethr =  3.99E-08,  avg # of iterations =  2.0

     total cpu time spent up to now is      260.9 secs

     total energy              =    -113.81448371 Ry
     estimated scf accuracy    <       0.00000080 Ry

     iteration #  4     ecut=   150.00 Ry     beta= 0.70
     Davidson diagonalization with overlap
     ethr =  2.22E-09,  avg # of iterations =  5.0

     total cpu time spent up to now is      278.6 secs

     total energy              =    -113.81448415 Ry
     estimated scf accuracy    <       0.00000013 Ry

     iteration #  5     ecut=   150.00 Ry     beta= 0.70
     Davidson diagonalization with overlap
     ethr =  3.70E-10,  avg # of iterations =  2.0

     total cpu time spent up to now is      291.0 secs

     total energy              =    -113.81448416 Ry
     estimated scf accuracy    <       0.00000003 Ry

     iteration #  6     ecut=   150.00 Ry     beta= 0.70
     Davidson diagonalization with overlap
     ethr =  7.84E-11,  avg # of iterations =  4.0

     total cpu time spent up to now is      306.6 secs

     End of self-consistent calculation

     Number of k-points >= 100: set verbosity='high' to print the bands.

     the Fermi energy is     1.7949 ev

!    total energy              =    -113.81448417 Ry
     estimated scf accuracy    <          3.6E-09 Ry
     smearing contrib. (-TS)   =       0.00000000 Ry
     internal energy E=F+TS    =    -113.81448417 Ry

     The total energy is F=E-TS. E is the sum of the following terms:
     one-electron contribution =     -64.81844418 Ry
     hartree contribution      =      30.62744635 Ry
     xc contribution           =     -34.92758055 Ry
     ewald contribution        =     -44.69590579 Ry

     convergence has been achieved in   6 iterations

     Forces acting on atoms (cartesian axes, Ry/au):

     atom    1 type  1   force =    -0.00019895   -0.00058350   -0.00030123
     atom    2 type  1   force =     0.00039117    0.00067153   -0.00061866
     atom    3 type  2   force =    -0.00211711    0.00010870   -0.00045223
     atom    4 type  2   force =     0.00097871   -0.00093411    0.00088979
     atom    5 type  2   force =    -0.00141213    0.00315665   -0.00012342
     atom    6 type  2   force =     0.00022818   -0.00056973    0.00046394
     atom    7 type  2   force =     0.00101451   -0.00019539    0.00181557
     atom    8 type  2   force =     0.00131358   -0.00048280   -0.00068175
     atom    9 type  3   force =     0.00024639   -0.00130920   -0.00195367
     atom   10 type  3   force =    -0.00030209    0.00162811    0.00039715
     atom   11 type  3   force =    -0.00305651   -0.00017924    0.00143778
     atom   12 type  3   force =    -0.00069863    0.00015199   -0.00032265
     atom   13 type  3   force =     0.00150137    0.00042380   -0.00075067
     atom   14 type  3   force =    -0.00012670   -0.00002739    0.00063516
     atom   15 type  3   force =     0.00046041    0.00154195    0.00035232
     atom   16 type  3   force =     0.00050226   -0.00062564    0.00089909
     atom   17 type  3   force =     0.00211696    0.00078420   -0.00088586
     atom   18 type  3   force =    -0.00036053   -0.00131348   -0.00065448
     atom   19 type  3   force =    -0.00063488   -0.00161026    0.00054330
     atom   20 type  3   force =     0.00015399   -0.00063619   -0.00068946

     Total force =     0.008284     Total SCF correction =     0.000043


     Computing stress (Cartesian axis) and pressure

          total   stress  (Ry/bohr**3)                   (kbar)     P=       -0.41
  -0.00002094   0.00000683   0.00000810           -3.08        1.00        1.19
   0.00000683   0.00000710   0.00000822            1.00        1.04        1.21
   0.00000810   0.00000822   0.00000557            1.19        1.21        0.82

     Energy error            =      1.3E-04 Ry
     Gradient error          =      3.2E-03 Ry/Bohr
     Cell gradient error     =      3.1E+00 kbar

     number of scf cycles    =   2
     number of bfgs steps    =   1

     enthalpy           old  =    -113.8143563523 Ry
     enthalpy           new  =    -113.8144841685 Ry

     CASE: enthalpy          _new < enthalpy          _old

     new trust radius        =       0.0057889100 bohr
     new conv_thr            =       0.0000000001 Ry

     new unit-cell volume =   1282.90935 a.u.^3 (   190.10755 Ang^3 )
     density =      0.65966 g/cm^3

CELL_PARAMETERS (alat=  9.57870047)
   0.967706728   0.060382443  -0.038928312
  -0.005891864   1.127292054  -0.100795264
  -0.132880118  -0.341105912   1.372850415

ATOMIC_POSITIONS (crystal)
B             0.3868873579        0.3581480714        0.5528748171
B             0.2005879817        0.1116352871        0.9267279630
Li            0.5597470368        1.0425207544        0.6967511371
Li            0.5429222006        0.5927299402        0.3559139353
Li            0.0778775027        0.6850858798        0.5729102685
Li            0.9043655454        0.2087482435        0.5317685321
Li            0.2768545630        0.5247337109        0.9042672528
Li            0.3856472267        0.0588989516        0.2459705434
H             0.3861630664        0.7227116070        0.1630089694
H             0.5404615563        0.3731228317        0.7119258683
H             0.2793502566        0.9231958497        0.8040530648
H             0.3031584300        0.1375325264        0.5006188582
H             1.0322989473        0.2298623195        0.8486451244
H             0.8064110643        0.6444127218        0.8219140280
H             0.7954601449        0.5216919816        0.1524488412
H             0.8473102303        0.7459498530        0.9193364623
H             1.0875378368        0.0523147776        0.0438694957
H             0.4042762739        0.2366968011        0.0124076658
H            -0.1048488499        0.4607801933        0.2147709484
H             0.7875296282        0.8692306982        0.5198182243



     Writing config-only to output data dir ./Li3BH6_P1.save/
     NEW-OLD atomic charge density approx. for the potential
     extrapolated charge   35.98767, renormalised to   36.00000

     total cpu time spent up to now is      316.2 secs

     Self-consistent Calculation

     iteration #  1     ecut=   150.00 Ry     beta= 0.70
     Davidson diagonalization with overlap
     ethr =  1.00E-06,  avg # of iterations =  3.0

     Threshold (ethr) on eigenvalues was too large:
     Diagonalizing with lowered threshold

     Davidson diagonalization with overlap
     ethr =  2.37E-08,  avg # of iterations =  4.0

     total cpu time spent up to now is      347.3 secs

     total energy              =    -113.81459446 Ry
     estimated scf accuracy    <       0.00001459 Ry

     iteration #  2     ecut=   150.00 Ry     beta= 0.70
     Davidson diagonalization with overlap
     ethr =  4.05E-08,  avg # of iterations =  3.0

     total cpu time spent up to now is      361.1 secs

     total energy              =    -113.81460070 Ry
     estimated scf accuracy    <       0.00000940 Ry

     iteration #  3     ecut=   150.00 Ry     beta= 0.70
     Davidson diagonalization with overlap
     ethr =  2.61E-08,  avg # of iterations =  2.0

     total cpu time spent up to now is      373.0 secs

     total energy              =    -113.81460173 Ry
     estimated scf accuracy    <       0.00000050 Ry

     iteration #  4     ecut=   150.00 Ry     beta= 0.70
     Davidson diagonalization with overlap
     ethr =  1.39E-09,  avg # of iterations =  4.9

     total cpu time spent up to now is      390.7 secs

     total energy              =    -113.81460206 Ry
     estimated scf accuracy    <       0.00000017 Ry

     iteration #  5     ecut=   150.00 Ry     beta= 0.70
     Davidson diagonalization with overlap
     ethr =  4.85E-10,  avg # of iterations =  2.0

     total cpu time spent up to now is      402.6 secs

     total energy              =    -113.81460206 Ry
     estimated scf accuracy    <       0.00000003 Ry

     iteration #  6     ecut=   150.00 Ry     beta= 0.70
     Davidson diagonalization with overlap
     ethr =  8.20E-11,  avg # of iterations =  3.9

     total cpu time spent up to now is      417.2 secs

     total energy              =    -113.81460207 Ry
     estimated scf accuracy    <          8.6E-09 Ry

     iteration #  7     ecut=   150.00 Ry     beta= 0.70
     Davidson diagonalization with overlap
     ethr =  2.40E-11,  avg # of iterations =  2.0

     total cpu time spent up to now is      428.9 secs

     total energy              =    -113.81460208 Ry
     estimated scf accuracy    <          1.7E-09 Ry

     iteration #  8     ecut=   150.00 Ry     beta= 0.70
     Davidson diagonalization with overlap
     ethr =  4.79E-12,  avg # of iterations =  4.0

     total cpu time spent up to now is      444.2 secs

     End of self-consistent calculation

     Number of k-points >= 100: set verbosity='high' to print the bands.

     the Fermi energy is     1.7977 ev

!    total energy              =    -113.81460208 Ry
     estimated scf accuracy    <          3.7E-11 Ry
     smearing contrib. (-TS)   =       0.00000000 Ry
     internal energy E=F+TS    =    -113.81460208 Ry

     The total energy is F=E-TS. E is the sum of the following terms:
     one-electron contribution =     -64.82065447 Ry
     hartree contribution      =      30.63062711 Ry
     xc contribution           =     -34.93030787 Ry
     ewald contribution        =     -44.69426684 Ry

     convergence has been achieved in   8 iterations

     Forces acting on atoms (cartesian axes, Ry/au):

     atom    1 type  1   force =    -0.00012798   -0.00025618   -0.00029548
     atom    2 type  1   force =     0.00041633    0.00083265   -0.00046902
     atom    3 type  2   force =    -0.00205963    0.00013104   -0.00040477
     atom    4 type  2   force =     0.00091529   -0.00092404    0.00077469
     atom    5 type  2   force =    -0.00112299    0.00267535   -0.00002431
     atom    6 type  2   force =     0.00017393   -0.00037438    0.00046498
     atom    7 type  2   force =     0.00089693   -0.00024231    0.00162486
     atom    8 type  2   force =     0.00132446   -0.00049408   -0.00067574
     atom    9 type  3   force =     0.00027217   -0.00118165   -0.00171027
     atom   10 type  3   force =    -0.00040238    0.00133619    0.00009220
     atom   11 type  3   force =    -0.00226660   -0.00074808    0.00066622
     atom   12 type  3   force =    -0.00060156    0.00019175   -0.00014838
     atom   13 type  3   force =     0.00084219    0.00089752   -0.00098344
     atom   14 type  3   force =    -0.00007877   -0.00003079    0.00062777
     atom   15 type  3   force =     0.00046510    0.00149495    0.00039069
     atom   16 type  3   force =     0.00046916   -0.00058679    0.00090674
     atom   17 type  3   force =     0.00121464    0.00035553   -0.00006650
     atom   18 type  3   force =     0.00034524   -0.00102113   -0.00061412
     atom   19 type  3   force =    -0.00060182   -0.00158643    0.00053119
     atom   20 type  3   force =    -0.00007370   -0.00046911   -0.00068731

     Total force =     0.007037     Total SCF correction =     0.000005


     Computing stress (Cartesian axis) and pressure

          total   stress  (Ry/bohr**3)                   (kbar)     P=       -0.07
  -0.00001619   0.00000576   0.00000642           -2.38        0.85        0.94
   0.00000576   0.00000807   0.00000716            0.85        1.19        1.05
   0.00000642   0.00000716   0.00000675            0.94        1.05        0.99

     Energy error            =      1.2E-04 Ry
     Gradient error          =      2.7E-03 Ry/Bohr
     Cell gradient error     =      2.4E+00 kbar

     number of scf cycles    =   3
     number of bfgs steps    =   2

     enthalpy           old  =    -113.8144841685 Ry
     enthalpy           new  =    -113.8146020756 Ry

     CASE: enthalpy          _new < enthalpy          _old

     new trust radius        =       0.0086885289 bohr
     new conv_thr            =       0.0000000001 Ry

     new unit-cell volume =   1282.40776 a.u.^3 (   190.03322 Ang^3 )
     density =      0.65992 g/cm^3

CELL_PARAMETERS (alat=  9.57870047)
   0.966665511   0.060744972  -0.038522343
  -0.005511493   1.127686753  -0.100334589
  -0.132306507  -0.340687272   1.373061423

ATOMIC_POSITIONS (crystal)
B             0.3868349382        0.3580335904        0.5528128620
B             0.2006510103        0.1117378353        0.9266425060
Li            0.5592277736        1.0425464150        0.6966630802
Li            0.5431717786        0.5925643286        0.3560520863
Li            0.0775747897        0.6857213161        0.5729350937
Li            0.9044248106        0.2086687328        0.5318439669
Li            0.2771294408        0.5247679032        0.9045733778
Li            0.3859505727        0.0587441398        0.2458528007
H             0.3861774031        0.7223454264        0.1626669190
H             0.5403874162        0.3734588191        0.7119912255
H             0.2787131127        0.9232080680        0.8042329522
H             0.3029967906        0.1375717958        0.5005763278
H             1.0325855363        0.2299339222        0.8485184510
H             0.8064226909        0.6444922836        0.8220734518
H             0.7956616566        0.5219869470        0.1525887470
H             0.8474282883        0.7458093712        0.9194388017
H             1.0879574442        0.0524048555        0.0437840412
H             0.4042492552        0.2364128873        0.0122759459
H            -0.1050680956        0.4605183876        0.2147903893
H             0.7875213870        0.8690759749        0.5196889741



     Writing config-only to output data dir ./Li3BH6_P1.save/
     NEW-OLD atomic charge density approx. for the potential
     extrapolated charge   35.98698, renormalised to   36.00000

     total cpu time spent up to now is      453.8 secs

     Self-consistent Calculation

     iteration #  1     ecut=   150.00 Ry     beta= 0.70
     Davidson diagonalization with overlap
     ethr =  1.00E-06,  avg # of iterations =  3.7

     Threshold (ethr) on eigenvalues was too large:
     Diagonalizing with lowered threshold

     Davidson diagonalization with overlap
     ethr =  3.59E-08,  avg # of iterations =  4.3

     total cpu time spent up to now is      487.0 secs

     total energy              =    -113.81473918 Ry
     estimated scf accuracy    <       0.00001922 Ry

     iteration #  2     ecut=   150.00 Ry     beta= 0.70
     Davidson diagonalization with overlap
     ethr =  5.34E-08,  avg # of iterations =  3.0

     total cpu time spent up to now is      500.7 secs

     total energy              =    -113.81474600 Ry
     estimated scf accuracy    <       0.00000954 Ry

     iteration #  3     ecut=   150.00 Ry     beta= 0.70
     Davidson diagonalization with overlap
     ethr =  2.65E-08,  avg # of iterations =  2.0

     total cpu time spent up to now is      512.6 secs

     total energy              =    -113.81474733 Ry
     estimated scf accuracy    <       0.00000039 Ry

     iteration #  4     ecut=   150.00 Ry     beta= 0.70
     Davidson diagonalization with overlap
     ethr =  1.08E-09,  avg # of iterations =  5.0

     total cpu time spent up to now is      531.3 secs

     total energy              =    -113.81474764 Ry
     estimated scf accuracy    <       0.00000024 Ry

     iteration #  5     ecut=   150.00 Ry     beta= 0.70
     Davidson diagonalization with overlap
     ethr =  6.71E-10,  avg # of iterations =  2.0

     total cpu time spent up to now is      543.2 secs

     total energy              =    -113.81474765 Ry
     estimated scf accuracy    <       0.00000002 Ry

     iteration #  6     ecut=   150.00 Ry     beta= 0.70
     Davidson diagonalization with overlap
     ethr =  5.87E-11,  avg # of iterations =  4.0

     total cpu time spent up to now is      559.6 secs

     total energy              =    -113.81474766 Ry
     estimated scf accuracy    <       0.00000001 Ry

     iteration #  7     ecut=   150.00 Ry     beta= 0.70
     Davidson diagonalization with overlap
     ethr =  2.93E-11,  avg # of iterations =  2.0

     total cpu time spent up to now is      571.9 secs

     total energy              =    -113.81474766 Ry
     estimated scf accuracy    <          1.1E-09 Ry

     iteration #  8     ecut=   150.00 Ry     beta= 0.70
     Davidson diagonalization with overlap
     ethr =  2.92E-12,  avg # of iterations =  3.4

     total cpu time spent up to now is      586.4 secs

     End of self-consistent calculation

     Number of k-points >= 100: set verbosity='high' to print the bands.

     the Fermi energy is     1.8005 ev

!    total energy              =    -113.81474766 Ry
     estimated scf accuracy    <          2.8E-11 Ry
     smearing contrib. (-TS)   =       0.00000000 Ry
     internal energy E=F+TS    =    -113.81474766 Ry

     The total energy is F=E-TS. E is the sum of the following terms:
     one-electron contribution =     -64.82186627 Ry
     hartree contribution      =      30.63304639 Ry
     xc contribution           =     -34.93309390 Ry
     ewald contribution        =     -44.69283389 Ry

     convergence has been achieved in   8 iterations

     Forces acting on atoms (cartesian axes, Ry/au):

     atom    1 type  1   force =    -0.00008329    0.00013617   -0.00036163
     atom    2 type  1   force =     0.00026550    0.00073204   -0.00027287
     atom    3 type  2   force =    -0.00194401    0.00017331   -0.00036221
     atom    4 type  2   force =     0.00080167   -0.00088990    0.00059488
     atom    5 type  2   force =    -0.00069075    0.00193468    0.00011449
     atom    6 type  2   force =     0.00009096   -0.00007783    0.00046559
     atom    7 type  2   force =     0.00072448   -0.00030515    0.00130987
     atom    8 type  2   force =     0.00132713   -0.00051255   -0.00062509
     atom    9 type  3   force =     0.00031546   -0.00098102   -0.00132712
     atom   10 type  3   force =    -0.00050134    0.00089366   -0.00029906
     atom   11 type  3   force =    -0.00127822   -0.00123183   -0.00014541
     atom   12 type  3   force =    -0.00044150    0.00033656    0.00009594
     atom   13 type  3   force =     0.00009720    0.00138000   -0.00113871
     atom   14 type  3   force =    -0.00002809   -0.00010537    0.00052261
     atom   15 type  3   force =     0.00041114    0.00147681    0.00039013
     atom   16 type  3   force =     0.00043705   -0.00046246    0.00101384
     atom   17 type  3   force =     0.00016209    0.00000687    0.00075561
     atom   18 type  3   force =     0.00123465   -0.00068463   -0.00063451
     atom   19 type  3   force =    -0.00048150   -0.00160605    0.00057192
     atom   20 type  3   force =    -0.00041864   -0.00021330   -0.00066829

     Total force =     0.006120     Total SCF correction =     0.000004


     Computing stress (Cartesian axis) and pressure

          total   stress  (Ry/bohr**3)                   (kbar)     P=        0.28
  -0.00000997   0.00000416   0.00000439           -1.47        0.61        0.65
   0.00000416   0.00000823   0.00000559            0.61        1.21        0.82
   0.00000439   0.00000559   0.00000737            0.65        0.82        1.08

     Energy error            =      1.5E-04 Ry
     Gradient error          =      1.9E-03 Ry/Bohr
     Cell gradient error     =      1.5E+00 kbar

     number of scf cycles    =   4
     number of bfgs steps    =   3

     enthalpy           old  =    -113.8146020756 Ry
     enthalpy           new  =    -113.8147476636 Ry

     CASE: enthalpy          _new < enthalpy          _old

     new trust radius        =       0.0130451792 bohr
     new conv_thr            =       0.0000000001 Ry

     new unit-cell volume =   1281.89889 a.u.^3 (   189.95782 Ang^3 )
     density =      0.66018 g/cm^3

CELL_PARAMETERS (alat=  9.57870047)
   0.965113682   0.061311254  -0.037907439
  -0.004920407   1.128380265  -0.099612212
  -0.131443222  -0.340044149   1.373490496

ATOMIC_POSITIONS (crystal)
B             0.3867508949        0.3578946705        0.5527001303
B             0.2007303238        0.1119025873        0.9265179365
Li            0.5583476864        1.0425986685        0.6965163123
Li            0.5435808571        0.5922756367        0.3562675476
Li            0.0771310450        0.6867051256        0.5729902600
Li            0.9045130371        0.2085808435        0.5319786600
Li            0.2775685734        0.5248057946        0.9050609026
Li            0.3864795884        0.0584736984        0.2456551546
H             0.3862186064        0.7217568750        0.1621272308
H             0.5402313631        0.3739545490        0.7120454656
H             0.2777728607        0.9231138200        0.8044375437
H             0.3027517391        0.1376747514        0.5005386733
H             1.0329455016        0.2301363692        0.8482813314
H             0.8064525261        0.6446187170        0.8223406884
H             0.7960100282        0.5224931739        0.1528369340
H             0.8476279557        0.7455851523        0.9196281180
H             1.0885071681        0.0525490263        0.0437341139
H             0.4043699378        0.2359654622        0.0120515455
H            -0.1054340147        0.4600647770        0.2148251694
H             0.7874423221        0.8688533014        0.5194682821



     Writing config-only to output data dir ./Li3BH6_P1.save/
     NEW-OLD atomic charge density approx. for the potential
     extrapolated charge   35.98678, renormalised to   36.00000

     total cpu time spent up to now is      596.0 secs

     Self-consistent Calculation

     iteration #  1     ecut=   150.00 Ry     beta= 0.70
     Davidson diagonalization with overlap
     ethr =  1.00E-06,  avg # of iterations =  4.3

     Threshold (ethr) on eigenvalues was too large:
     Diagonalizing with lowered threshold

     Davidson diagonalization with overlap
     ethr =  6.42E-08,  avg # of iterations =  3.5

     total cpu time spent up to now is      628.8 secs

     total energy              =    -113.81489914 Ry
     estimated scf accuracy    <       0.00002797 Ry

     iteration #  2     ecut=   150.00 Ry     beta= 0.70
     Davidson diagonalization with overlap
     ethr =  7.77E-08,  avg # of iterations =  2.4

     total cpu time spent up to now is      641.9 secs

     total energy              =    -113.81490632 Ry
     estimated scf accuracy    <       0.00000853 Ry

     iteration #  3     ecut=   150.00 Ry     beta= 0.70
     Davidson diagonalization with overlap
     ethr =  2.37E-08,  avg # of iterations =  2.4

     total cpu time spent up to now is      654.1 secs

     total energy              =    -113.81490800 Ry
     estimated scf accuracy    <       0.00000024 Ry

     iteration #  4     ecut=   150.00 Ry     beta= 0.70
     Davidson diagonalization with overlap
     ethr =  6.73E-10,  avg # of iterations =  5.1

     total cpu time spent up to now is      674.4 secs

     total energy              =    -113.81490820 Ry
     estimated scf accuracy    <       0.00000020 Ry

     iteration #  5     ecut=   150.00 Ry     beta= 0.70
     Davidson diagonalization with overlap
     ethr =  5.65E-10,  avg # of iterations =  2.0

     total cpu time spent up to now is      686.6 secs

     total energy              =    -113.81490823 Ry
     estimated scf accuracy    <          6.8E-09 Ry

     iteration #  6     ecut=   150.00 Ry     beta= 0.70
     Davidson diagonalization with overlap
     ethr =  1.89E-11,  avg # of iterations =  5.0

     total cpu time spent up to now is      705.8 secs

     total energy              =    -113.81490823 Ry
     estimated scf accuracy    <          9.8E-09 Ry

     iteration #  7     ecut=   150.00 Ry     beta= 0.70
     Davidson diagonalization with overlap
     ethr =  1.89E-11,  avg # of iterations =  2.0

     total cpu time spent up to now is      718.3 secs

     total energy              =    -113.81490824 Ry
     estimated scf accuracy    <          3.4E-10 Ry

     iteration #  8     ecut=   150.00 Ry     beta= 0.70
     Davidson diagonalization with overlap
     ethr =  9.45E-13,  avg # of iterations =  5.0

     total cpu time spent up to now is      736.9 secs

     End of self-consistent calculation

     Number of k-points >= 100: set verbosity='high' to print the bands.

     the Fermi energy is     1.8026 ev

!    total energy              =    -113.81490824 Ry
     estimated scf accuracy    <          1.2E-10 Ry
     smearing contrib. (-TS)   =       0.00000000 Ry
     internal energy E=F+TS    =    -113.81490824 Ry

     The total energy is F=E-TS. E is the sum of the following terms:
     one-electron contribution =     -64.82030369 Ry
     hartree contribution      =      30.63364081 Ry
     xc contribution           =     -34.93550278 Ry
     ewald contribution        =     -44.69274257 Ry

     convergence has been achieved in   8 iterations

     Forces acting on atoms (cartesian axes, Ry/au):

     atom    1 type  1   force =    -0.00005873    0.00063473   -0.00049008
     atom    2 type  1   force =     0.00002775    0.00047099   -0.00006013
     atom    3 type  2   force =    -0.00173117    0.00024536   -0.00032982
     atom    4 type  2   force =     0.00061224   -0.00081717    0.00031380
     atom    5 type  2   force =    -0.00005691    0.00081596    0.00030262
     atom    6 type  2   force =    -0.00004114    0.00036785    0.00046186
     atom    7 type  2   force =     0.00046981   -0.00039172    0.00080939
     atom    8 type  2   force =     0.00131832   -0.00054607   -0.00049748
     atom    9 type  3   force =     0.00038568   -0.00066364   -0.00072919
     atom   10 type  3   force =    -0.00059475    0.00024632   -0.00082058
     atom   11 type  3   force =    -0.00005784   -0.00155906   -0.00096769
     atom   12 type  3   force =    -0.00020782    0.00059617    0.00040729
     atom   13 type  3   force =    -0.00068195    0.00176550   -0.00110744
     atom   14 type  3   force =     0.00006723   -0.00016282    0.00044708
     atom   15 type  3   force =     0.00042147    0.00134853    0.00048969
     atom   16 type  3   force =     0.00036588   -0.00033602    0.00108379
     atom   17 type  3   force =    -0.00111554   -0.00024072    0.00159156
     atom   18 type  3   force =     0.00219331   -0.00041143   -0.00082536
     atom   19 type  3   force =    -0.00038601   -0.00153525    0.00053841
     atom   20 type  3   force =    -0.00092984    0.00017248   -0.00061772

     Total force =     0.006165     Total SCF correction =     0.000009


     Computing stress (Cartesian axis) and pressure

          total   stress  (Ry/bohr**3)                   (kbar)     P=        0.57
  -0.00000204   0.00000187   0.00000156           -0.30        0.28        0.23
   0.00000187   0.00000686   0.00000322            0.28        1.01        0.47
   0.00000156   0.00000322   0.00000673            0.23        0.47        0.99

     Energy error            =      1.6E-04 Ry
     Gradient error          =      2.2E-03 Ry/Bohr
     Cell gradient error     =      1.0E+00 kbar

     number of scf cycles    =   5
     number of bfgs steps    =   4

     enthalpy           old  =    -113.8147476636 Ry
     enthalpy           new  =    -113.8149082355 Ry

     CASE: enthalpy          _new < enthalpy          _old

     new trust radius        =       0.0190860814 bohr
     new conv_thr            =       0.0000000002 Ry

     new unit-cell volume =   1281.47653 a.u.^3 (   189.89523 Ang^3 )
     density =      0.66040 g/cm^3

CELL_PARAMETERS (alat=  9.57870047)
   0.962860977   0.062171382  -0.037003174
  -0.004025075   1.129524440  -0.098500795
  -0.130183077  -0.339066133   1.374268777

ATOMIC_POSITIONS (crystal)
B             0.3866082158        0.3577604954        0.5524855082
B             0.2008091138        0.1121453389        0.9263343584
Li            0.5568560370        1.0427067388        0.6962667994
Li            0.5442430065        0.5917701239        0.3565923692
Li            0.0765207885        0.6881772314        0.5731090308
Li            0.9046349767        0.2085329537        0.5322223611
Li            0.2782593896        0.5248263853        0.9058191494
Li            0.3874118740        0.0579968178        0.2453308558
H             0.3863274012        0.7208283890        0.1612988107
H             0.5399137992        0.3746451859        0.7120266212
H             0.2764225784        0.9228040499        0.8046374922
H             0.3023931949        0.1379331857        0.5005399716
H             1.0333693354        0.2305980098        0.8478694066
H             0.8065283496        0.6448222297        0.8227962492
H             0.7966288372        0.5233609026        0.1532915978
H             0.8479631626        0.7452254116        0.9199774129
H             1.0891525688        0.0528073108        0.0437975860
H             0.4048403815        0.2352223429        0.0116324451
H            -0.1060536381        0.4592788641        0.2148816767
H             0.7871686276        0.8685610324        0.5190922979



     Writing config-only to output data dir ./Li3BH6_P1.save/
     NEW-OLD atomic charge density approx. for the potential
     extrapolated charge   35.98903, renormalised to   36.00000

     total cpu time spent up to now is      746.6 secs

     Self-consistent Calculation

     iteration #  1     ecut=   150.00 Ry     beta= 0.70
     Davidson diagonalization with overlap
     ethr =  1.00E-06,  avg # of iterations =  5.4

     total cpu time spent up to now is      767.9 secs

     total energy              =    -113.81502954 Ry
     estimated scf accuracy    <       0.00003947 Ry

     iteration #  2     ecut=   150.00 Ry     beta= 0.70
     Davidson diagonalization with overlap
     ethr =  1.10E-07,  avg # of iterations =  4.0

     total cpu time spent up to now is      782.8 secs

     total energy              =    -113.81503977 Ry
     estimated scf accuracy    <       0.00000628 Ry

     iteration #  3     ecut=   150.00 Ry     beta= 0.70
     Davidson diagonalization with overlap
     ethr =  1.74E-08,  avg # of iterations =  2.9

     total cpu time spent up to now is      796.4 secs

     total energy              =    -113.81504164 Ry
     estimated scf accuracy    <       0.00000077 Ry

     iteration #  4     ecut=   150.00 Ry     beta= 0.70
     Davidson diagonalization with overlap
     ethr =  2.14E-09,  avg # of iterations =  4.0

     total cpu time spent up to now is      811.6 secs

     total energy              =    -113.81504187 Ry
     estimated scf accuracy    <       0.00000006 Ry

     iteration #  5     ecut=   150.00 Ry     beta= 0.70
     Davidson diagonalization with overlap
     ethr =  1.58E-10,  avg # of iterations =  4.8

     total cpu time spent up to now is      829.2 secs

     total energy              =    -113.81504191 Ry
     estimated scf accuracy    <       0.00000001 Ry

     iteration #  6     ecut=   150.00 Ry     beta= 0.70
     Davidson diagonalization with overlap
     ethr =  2.98E-11,  avg # of iterations =  3.9

     total cpu time spent up to now is      844.3 secs

     total energy              =    -113.81504191 Ry
     estimated scf accuracy    <          1.7E-09 Ry

     iteration #  7     ecut=   150.00 Ry     beta= 0.70
     Davidson diagonalization with overlap
     ethr =  4.72E-12,  avg # of iterations =  3.8

     total cpu time spent up to now is      860.3 secs

     total energy              =    -113.81504191 Ry
     estimated scf accuracy    <          1.7E-10 Ry

     iteration #  8     ecut=   150.00 Ry     beta= 0.70
     Davidson diagonalization with overlap
     ethr =  4.84E-13,  avg # of iterations =  4.6

     total cpu time spent up to now is      878.0 secs

     End of self-consistent calculation

     Number of k-points >= 100: set verbosity='high' to print the bands.

     the Fermi energy is     1.8026 ev

!    total energy              =    -113.81504191 Ry
     estimated scf accuracy    <          3.4E-11 Ry
     smearing contrib. (-TS)   =       0.00000000 Ry
     internal energy E=F+TS    =    -113.81504191 Ry

     The total energy is F=E-TS. E is the sum of the following terms:
     one-electron contribution =     -64.81297577 Ry
     hartree contribution      =      30.63016150 Ry
     xc contribution           =     -34.93651980 Ry
     ewald contribution        =     -44.69570784 Ry

     convergence has been achieved in   8 iterations

     Forces acting on atoms (cartesian axes, Ry/au):

     atom    1 type  1   force =    -0.00007358    0.00125037   -0.00070151
     atom    2 type  1   force =    -0.00031997   -0.00004876    0.00016417
     atom    3 type  2   force =    -0.00134112    0.00035478   -0.00033447
     atom    4 type  2   force =     0.00029903   -0.00066643   -0.00011618
     atom    5 type  2   force =     0.00080515   -0.00078138    0.00053374
     atom    6 type  2   force =    -0.00025097    0.00100558    0.00044454
     atom    7 type  2   force =     0.00010964   -0.00050060    0.00002990
     atom    8 type  2   force =     0.00127056   -0.00059688   -0.00022994
     atom    9 type  3   force =     0.00049361   -0.00017525    0.00017841
     atom   10 type  3   force =    -0.00061257   -0.00063779   -0.00143075
     atom   11 type  3   force =     0.00128241   -0.00145694   -0.00157539
     atom   12 type  3   force =     0.00008265    0.00096279    0.00071392
     atom   13 type  3   force =    -0.00128893    0.00179838   -0.00066509
     atom   14 type  3   force =     0.00021534   -0.00022297    0.00037954
     atom   15 type  3   force =     0.00051947    0.00104337    0.00073662
     atom   16 type  3   force =     0.00024406   -0.00018816    0.00112867
     atom   17 type  3   force =    -0.00246591   -0.00017381    0.00217551
     atom   18 type  3   force =     0.00297813   -0.00036375   -0.00132396
     atom   19 type  3   force =    -0.00031572   -0.00131852    0.00039598
     atom   20 type  3   force =    -0.00163127    0.00071598   -0.00050372

     Total force =     0.007522     Total SCF correction =     0.000006


     Computing stress (Cartesian axis) and pressure

          total   stress  (Ry/bohr**3)                   (kbar)     P=        0.67
   0.00000732  -0.00000125  -0.00000204            1.08       -0.18       -0.30
  -0.00000125   0.00000276  -0.00000007           -0.18        0.41       -0.01
  -0.00000204  -0.00000007   0.00000361           -0.30       -0.01        0.53

     Energy error            =      1.3E-04 Ry
     Gradient error          =      3.0E-03 Ry/Bohr
     Cell gradient error     =      1.1E+00 kbar

     number of scf cycles    =   6
     number of bfgs steps    =   5

     enthalpy           old  =    -113.8149082355 Ry
     enthalpy           new  =    -113.8150419100 Ry

     CASE: enthalpy          _new < enthalpy          _old

     new trust radius        =       0.0071746119 bohr
     new conv_thr            =       0.0000000001 Ry

     new unit-cell volume =   1281.55508 a.u.^3 (   189.90687 Ang^3 )
     density =      0.66036 g/cm^3

CELL_PARAMETERS (alat=  9.57870047)
   0.962058489   0.062507681  -0.036670573
  -0.003675296   1.130024548  -0.098038163
  -0.129728785  -0.338658465   1.374653106

ATOMIC_POSITIONS (crystal)
B             0.3865274630        0.3577967475        0.5523436133
B             0.2007910559        0.1122190308        0.9262616822
Li            0.5560846414        1.0427845202        0.6961310225
Li            0.5445485661        0.5914913648        0.3567140573
Li            0.0763555240        0.6887257451        0.5731962886
Li            0.9046646074        0.2086229792        0.5323665309
Li            0.2785602269        0.5247867959        0.9061329132
Li            0.3879376598        0.0577281265        0.2451806621
H             0.3864306459        0.7204263985        0.1609686121
H             0.5397036073        0.3748442942        0.7119037621
H             0.2759493459        0.9225480395        0.8046280505
H             0.3022613791        0.1381577121        0.5006009998
H             1.0334462732        0.2309258137        0.8476751685
H             0.8065959252        0.6449129392        0.8230351525
H             0.7969869341        0.5238214565        0.1535711241
H             0.8481347510        0.7450621634        0.9201943951
H             1.0892156361        0.0529840467        0.0439516359
H             0.4053093134        0.2348079435        0.0113425390
H            -0.1063766377        0.4588521538        0.2149068838
H             0.7868710819        0.8685047289        0.5188969066



     Writing config-only to output data dir ./Li3BH6_P1.save/
     NEW-OLD atomic charge density approx. for the potential
     extrapolated charge   36.00204, renormalised to   36.00000

     total cpu time spent up to now is      887.7 secs

     Self-consistent Calculation

     iteration #  1     ecut=   150.00 Ry     beta= 0.70
     Davidson diagonalization with overlap
     ethr =  1.00E-06,  avg # of iterations =  3.4

     Threshold (ethr) on eigenvalues was too large:
     Diagonalizing with lowered threshold

     Davidson diagonalization with overlap
     ethr =  1.90E-08,  avg # of iterations =  5.0

     total cpu time spent up to now is      923.8 secs

     total energy              =    -113.81510305 Ry
     estimated scf accuracy    <       0.00001080 Ry

     iteration #  2     ecut=   150.00 Ry     beta= 0.70
     Davidson diagonalization with overlap
     ethr =  3.00E-08,  avg # of iterations =  2.0

     total cpu time spent up to now is      936.4 secs

     total energy              =    -113.81510431 Ry
     estimated scf accuracy    <       0.00000118 Ry

     iteration #  3     ecut=   150.00 Ry     beta= 0.70
     Davidson diagonalization with overlap
     ethr =  3.28E-09,  avg # of iterations =  2.9

     total cpu time spent up to now is      949.8 secs

     total energy              =    -113.81510460 Ry
     estimated scf accuracy    <       0.00000012 Ry

     iteration #  4     ecut=   150.00 Ry     beta= 0.70
     Davidson diagonalization with overlap
     ethr =  3.28E-10,  avg # of iterations =  2.9

     total cpu time spent up to now is      963.2 secs

     total energy              =    -113.81510463 Ry
     estimated scf accuracy    <          9.6E-09 Ry

     iteration #  5     ecut=   150.00 Ry     beta= 0.70
     Davidson diagonalization with overlap
     ethr =  2.65E-11,  avg # of iterations =  5.0

     total cpu time spent up to now is      995.7 secs

     total energy              =    -113.81510464 Ry
     estimated scf accuracy    <          1.1E-09 Ry

     iteration #  6     ecut=   150.00 Ry     beta= 0.70
     Davidson diagonalization with overlap
     ethr =  3.01E-12,  avg # of iterations =  4.7

     total cpu time spent up to now is     1019.2 secs

     total energy              =    -113.81510464 Ry
     estimated scf accuracy    <          1.6E-10 Ry

     iteration #  7     ecut=   150.00 Ry     beta= 0.70
     Davidson diagonalization with overlap
     ethr =  4.49E-13,  avg # of iterations =  4.4

     total cpu time spent up to now is     1036.0 secs

     End of self-consistent calculation

     Number of k-points >= 100: set verbosity='high' to print the bands.

     the Fermi energy is     1.8002 ev

!    total energy              =    -113.81510464 Ry
     estimated scf accuracy    <          2.3E-11 Ry
     smearing contrib. (-TS)   =       0.00000000 Ry
     internal energy E=F+TS    =    -113.81510464 Ry

     The total energy is F=E-TS. E is the sum of the following terms:
     one-electron contribution =     -64.80638400 Ry
     hartree contribution      =      30.62563433 Ry
     xc contribution           =     -34.93501345 Ry
     ewald contribution        =     -44.69934152 Ry

     convergence has been achieved in   7 iterations

     Forces acting on atoms (cartesian axes, Ry/au):

     atom    1 type  1   force =    -0.00012174    0.00136208   -0.00078076
     atom    2 type  1   force =    -0.00041028   -0.00028202    0.00020031
     atom    3 type  2   force =    -0.00113003    0.00039365   -0.00038174
     atom    4 type  2   force =     0.00014773   -0.00055776   -0.00029124
     atom    5 type  2   force =     0.00099250   -0.00126589    0.00055581
     atom    6 type  2   force =    -0.00033293    0.00121419    0.00042561
     atom    7 type  2   force =    -0.00000451   -0.00051349   -0.00028678
     atom    8 type  2   force =     0.00120793   -0.00061409   -0.00005944
     atom    9 type  3   force =     0.00053277    0.00001097    0.00051773
     atom   10 type  3   force =    -0.00047942   -0.00086958   -0.00146491
     atom   11 type  3   force =     0.00137965   -0.00099520   -0.00134060
     atom   12 type  3   force =     0.00011061    0.00103889    0.00064607
     atom   13 type  3   force =    -0.00106084    0.00135641   -0.00018700
     atom   14 type  3   force =     0.00027987   -0.00021128    0.00041413
     atom   15 type  3   force =     0.00054546    0.00091074    0.00082823
     atom   16 type  3   force =     0.00017948   -0.00018207    0.00107046
     atom   17 type  3   force =    -0.00248448    0.00019459    0.00184834
     atom   18 type  3   force =     0.00270018   -0.00062919   -0.00165432
     atom   19 type  3   force =    -0.00026932   -0.00122026    0.00034748
     atom   20 type  3   force =    -0.00178262    0.00085928   -0.00040738

     Total force =     0.007323     Total SCF correction =     0.000004


     Computing stress (Cartesian axis) and pressure

          total   stress  (Ry/bohr**3)                   (kbar)     P=        0.46
   0.00000878  -0.00000217  -0.00000275            1.29       -0.32       -0.40
  -0.00000217  -0.00000014  -0.00000104           -0.32       -0.02       -0.15
  -0.00000275  -0.00000104   0.00000082           -0.40       -0.15        0.12

     Energy error            =      6.3E-05 Ry
     Gradient error          =      2.7E-03 Ry/Bohr
     Cell gradient error     =      1.3E+00 kbar

     number of scf cycles    =   7
     number of bfgs steps    =   6

     enthalpy           old  =    -113.8150419100 Ry
     enthalpy           new  =    -113.8151046360 Ry

     CASE: enthalpy          _new < enthalpy          _old

     new trust radius        =       0.0107541981 bohr
     new conv_thr            =            1.0E-10 Ry

     new unit-cell volume =   1281.76346 a.u.^3 (   189.93775 Ang^3 )
     density =      0.66025 g/cm^3

CELL_PARAMETERS (alat=  9.57870047)
   0.961303858   0.062845000  -0.036344637
  -0.003323052   1.130544603  -0.097526753
  -0.129292818  -0.338195052   1.375067417

ATOMIC_POSITIONS (crystal)
B             0.3864081285        0.3579391916        0.5521242925
B             0.2007178888        0.1122629744        0.9261842030
Li            0.5550754701        1.0429073765        0.6959403566
Li            0.5449087634        0.5911124956        0.3568260637
Li            0.0762688371        0.6892468302        0.5733312128
Li            0.9046687483        0.2088547474        0.5325736996
Li            0.2789025188        0.5246857435        0.9064645619
Li            0.3886705276        0.0573538052        0.2450076721
H             0.3866146783        0.7199763006        0.1606331992
H             0.5394040234        0.3749646430        0.7116492587
H             0.2755035633        0.9221803089        0.8045497102
H             0.3021256063        0.1385306828        0.5007211622
H             1.0334716930        0.2313979181        0.8474680046
H             0.8067143483        0.6450189953        0.8233558661
H             0.7974878409        0.5244444184        0.1539794354
H             0.8483573718        0.7448663961        0.9205142647
H             1.0890845421        0.0532837861        0.0442283126
H             0.4060693465        0.2341914582        0.0108643606
H            -0.1067932034        0.4582650130        0.2149425015
H             0.7863373070        0.8685199148        0.5186438620



     Writing config-only to output data dir ./Li3BH6_P1.save/
     NEW-OLD atomic charge density approx. for the potential
     extrapolated charge   36.00541, renormalised to   36.00000

     total cpu time spent up to now is     1045.8 secs

     Self-consistent Calculation

     iteration #  1     ecut=   150.00 Ry     beta= 0.70
     Davidson diagonalization with overlap
     ethr =  1.00E-06,  avg # of iterations =  4.0

     Threshold (ethr) on eigenvalues was too large:
     Diagonalizing with lowered threshold

     Davidson diagonalization with overlap
     ethr =  4.87E-08,  avg # of iterations =  4.0

     total cpu time spent up to now is     1079.5 secs

     total energy              =    -113.81519323 Ry
     estimated scf accuracy    <       0.00002362 Ry

     iteration #  2     ecut=   150.00 Ry     beta= 0.70
     Davidson diagonalization with overlap
     ethr =  6.56E-08,  avg # of iterations =  2.0

     total cpu time spent up to now is     1092.1 secs

     total energy              =    -113.81519708 Ry
     estimated scf accuracy    <       0.00000437 Ry

     iteration #  3     ecut=   150.00 Ry     beta= 0.70
     Davidson diagonalization with overlap
     ethr =  1.21E-08,  avg # of iterations =  2.8

     total cpu time spent up to now is     1105.1 secs

     total energy              =    -113.81519813 Ry
     estimated scf accuracy    <       0.00000020 Ry

     iteration #  4     ecut=   150.00 Ry     beta= 0.70
     Davidson diagonalization with overlap
     ethr =  5.59E-10,  avg # of iterations =  4.3

     total cpu time spent up to now is     1121.7 secs

     total energy              =    -113.81519819 Ry
     estimated scf accuracy    <       0.00000005 Ry

     iteration #  5     ecut=   150.00 Ry     beta= 0.70
     Davidson diagonalization with overlap
     ethr =  1.31E-10,  avg # of iterations =  2.6

     total cpu time spent up to now is     1135.1 secs

     total energy              =    -113.81519820 Ry
     estimated scf accuracy    <          4.3E-09 Ry

     iteration #  6     ecut=   150.00 Ry     beta= 0.70
     Davidson diagonalization with overlap
     ethr =  1.19E-11,  avg # of iterations =  4.9

     total cpu time spent up to now is     1153.3 secs

     total energy              =    -113.81519821 Ry
     estimated scf accuracy    <          1.7E-09 Ry

     iteration #  7     ecut=   150.00 Ry     beta= 0.70
     Davidson diagonalization with overlap
     ethr =  4.75E-12,  avg # of iterations =  2.0

     total cpu time spent up to now is     1165.8 secs

     End of self-consistent calculation

     Number of k-points >= 100: set verbosity='high' to print the bands.

     the Fermi energy is     1.7962 ev

!    total energy              =    -113.81519821 Ry
     estimated scf accuracy    <          7.9E-11 Ry
     smearing contrib. (-TS)   =       0.00000000 Ry
     internal energy E=F+TS    =    -113.81519821 Ry

     The total energy is F=E-TS. E is the sum of the following terms:
     one-electron contribution =     -64.79684350 Ry
     hartree contribution      =      30.61900532 Ry
     xc contribution           =     -34.93220604 Ry
     ewald contribution        =     -44.70515399 Ry

     convergence has been achieved in   7 iterations

     Forces acting on atoms (cartesian axes, Ry/au):

     atom    1 type  1   force =    -0.00018935    0.00133762   -0.00081158
     atom    2 type  1   force =    -0.00042003   -0.00051214    0.00016781
     atom    3 type  2   force =    -0.00086047    0.00041978   -0.00046730
     atom    4 type  2   force =    -0.00003417   -0.00038905   -0.00047705
     atom    5 type  2   force =     0.00099842   -0.00157900    0.00049849
     atom    6 type  2   force =    -0.00041421    0.00137584    0.00038937
     atom    7 type  2   force =    -0.00009119   -0.00049128   -0.00061177
     atom    8 type  2   force =     0.00109054   -0.00062040    0.00016582
     atom    9 type  3   force =     0.00056451    0.00018880    0.00083158
     atom   10 type  3   force =    -0.00020627   -0.00097169   -0.00130074
     atom   11 type  3   force =     0.00109821   -0.00025650   -0.00076310
     atom   12 type  3   force =     0.00003598    0.00102077    0.00036992
     atom   13 type  3   force =    -0.00048039    0.00056840    0.00050034
     atom   14 type  3   force =     0.00034211   -0.00019229    0.00047001
     atom   15 type  3   force =     0.00062690    0.00068717    0.00098395
     atom   16 type  3   force =     0.00010689   -0.00019808    0.00097732
     atom   17 type  3   force =    -0.00207166    0.00079508    0.00111339
     atom   18 type  3   force =     0.00195606   -0.00106981   -0.00202118
     atom   19 type  3   force =    -0.00027230   -0.00103152    0.00023656
     atom   20 type  3   force =    -0.00177958    0.00091830   -0.00025185

     Total force =     0.006626     Total SCF correction =     0.000007


     Computing stress (Cartesian axis) and pressure

          total   stress  (Ry/bohr**3)                   (kbar)     P=        0.09
   0.00000844  -0.00000271  -0.00000280            1.24       -0.40       -0.41
  -0.00000271  -0.00000367  -0.00000160           -0.40       -0.54       -0.24
  -0.00000280  -0.00000160  -0.00000302           -0.41       -0.24       -0.44

     Energy error            =      9.4E-05 Ry
     Gradient error          =      2.1E-03 Ry/Bohr
     Cell gradient error     =      1.2E+00 kbar

     number of scf cycles    =   8
     number of bfgs steps    =   7

     enthalpy           old  =    -113.8151046360 Ry
     enthalpy           new  =    -113.8151982070 Ry

     CASE: enthalpy          _new < enthalpy          _old

     new trust radius        =       0.0161250376 bohr
     new conv_thr            =            1.0E-10 Ry

     new unit-cell volume =   1281.98333 a.u.^3 (   189.97033 Ang^3 )
     density =      0.66014 g/cm^3

CELL_PARAMETERS (alat=  9.57870047)
   0.960570602   0.063186553  -0.036007435
  -0.002962919   1.131051496  -0.096932646
  -0.128852811  -0.337630735   1.375448504

ATOMIC_POSITIONS (crystal)
B             0.3862314469        0.3582199321        0.5517995088
B             0.2005823675        0.1122635906        0.9260939579
Li            0.5537465281        1.0430907832        0.6956671723
Li            0.5453347948        0.5906031406        0.3569189007
Li            0.0762683284        0.6897373474        0.5735245661
Li            0.9046335906        0.2092861685        0.5328672218
Li            0.2793023953        0.5244994911        0.9068124670
Li            0.3896861007        0.0568351406        0.2448127432
H             0.3869137888        0.7194648897        0.1602967526
H             0.5390093003        0.3749907686        0.7112329068
H             0.2750504551        0.9217141029        0.8044156403
H             0.3019629971        0.1390916635        0.5008959695
H             1.0334861454        0.2320229811        0.8472732730
H             0.8069042707        0.6451420306        0.8237890916
H             0.7981918302        0.5252877832        0.1545725124
H             0.8486503858        0.7446273840        0.9209804173
H             1.0887341964        0.0537782157        0.0446342344
H             0.4071565310        0.2332583177        0.0101043482
H            -0.1073392012        0.4574592085        0.2149913058
H             0.7854917483        0.8686300603        0.5183190105



     Writing config-only to output data dir ./Li3BH6_P1.save/
     NEW-OLD atomic charge density approx. for the potential
     extrapolated charge   36.00571, renormalised to   36.00000

     total cpu time spent up to now is     1175.4 secs

     Self-consistent Calculation

     iteration #  1     ecut=   150.00 Ry     beta= 0.70
     Davidson diagonalization with overlap
     ethr =  1.00E-06,  avg # of iterations =  4.1

     Threshold (ethr) on eigenvalues was too large:
     Diagonalizing with lowered threshold

     Davidson diagonalization with overlap
     ethr =  9.73E-08,  avg # of iterations =  3.9

     total cpu time spent up to now is     1209.8 secs

     total energy              =    -113.81530639 Ry
     estimated scf accuracy    <       0.00004525 Ry

     iteration #  2     ecut=   150.00 Ry     beta= 0.70
     Davidson diagonalization with overlap
     ethr =  1.26E-07,  avg # of iterations =  2.0

     total cpu time spent up to now is     1222.4 secs

     total energy              =    -113.81531365 Ry
     estimated scf accuracy    <       0.00000794 Ry

     iteration #  3     ecut=   150.00 Ry     beta= 0.70
     Davidson diagonalization with overlap
     ethr =  2.21E-08,  avg # of iterations =  2.4

     total cpu time spent up to now is     1235.1 secs

     total energy              =    -113.81531553 Ry
     estimated scf accuracy    <       0.00000036 Ry

     iteration #  4     ecut=   150.00 Ry     beta= 0.70
     Davidson diagonalization with overlap
     ethr =  1.00E-09,  avg # of iterations =  4.7

     total cpu time spent up to now is     1252.3 secs

     total energy              =    -113.81531567 Ry
     estimated scf accuracy    <       0.00000013 Ry

     iteration #  5     ecut=   150.00 Ry     beta= 0.70
     Davidson diagonalization with overlap
     ethr =  3.72E-10,  avg # of iterations =  2.0

     total cpu time spent up to now is     1264.7 secs

     total energy              =    -113.81531569 Ry
     estimated scf accuracy    <       0.00000001 Ry

     iteration #  6     ecut=   150.00 Ry     beta= 0.70
     Davidson diagonalization with overlap
     ethr =  3.19E-11,  avg # of iterations =  5.0

     total cpu time spent up to now is     1283.7 secs

     total energy              =    -113.81531570 Ry
     estimated scf accuracy    <          7.0E-09 Ry

     iteration #  7     ecut=   150.00 Ry     beta= 0.70
     Davidson diagonalization with overlap
     ethr =  1.94E-11,  avg # of iterations =  2.0

     total cpu time spent up to now is     1296.0 secs

     total energy              =    -113.81531570 Ry
     estimated scf accuracy    <          3.1E-10 Ry

     iteration #  8     ecut=   150.00 Ry     beta= 0.70
     Davidson diagonalization with overlap
     ethr =  8.51E-13,  avg # of iterations =  5.3

     total cpu time spent up to now is     1316.3 secs

     End of self-consistent calculation

     Number of k-points >= 100: set verbosity='high' to print the bands.

     the Fermi energy is     1.7912 ev

!    total energy              =    -113.81531570 Ry
     estimated scf accuracy    <          9.6E-11 Ry
     smearing contrib. (-TS)   =       0.00000000 Ry
     internal energy E=F+TS    =    -113.81531570 Ry

     The total energy is F=E-TS. E is the sum of the following terms:
     one-electron contribution =     -64.78507659 Ry
     hartree contribution      =      30.61125671 Ry
     xc contribution           =     -34.92865852 Ry
     ewald contribution        =     -44.71283730 Ry

     convergence has been achieved in   8 iterations

     Forces acting on atoms (cartesian axes, Ry/au):

     atom    1 type  1   force =    -0.00025544    0.00115385   -0.00074983
     atom    2 type  1   force =    -0.00031855   -0.00071732    0.00006475
     atom    3 type  2   force =    -0.00052713    0.00041852   -0.00058685
     atom    4 type  2   force =    -0.00025318   -0.00014390   -0.00067374
     atom    5 type  2   force =     0.00077530   -0.00166169    0.00034699
     atom    6 type  2   force =    -0.00049200    0.00147329    0.00033982
     atom    7 type  2   force =    -0.00014611   -0.00042721   -0.00093607
     atom    8 type  2   force =     0.00089672   -0.00061310    0.00042846
     atom    9 type  3   force =     0.00058132    0.00035215    0.00110253
     atom   10 type  3   force =     0.00021436   -0.00091818   -0.00093322
     atom   11 type  3   force =     0.00046103    0.00061181    0.00003417
     atom   12 type  3   force =    -0.00016009    0.00088816   -0.00014401
     atom   13 type  3   force =     0.00034587   -0.00045576    0.00128984
     atom   14 type  3   force =     0.00040661   -0.00015177    0.00057024
     atom   15 type  3   force =     0.00074994    0.00036878    0.00118745
     atom   16 type  3   force =     0.00002075   -0.00025183    0.00082311
     atom   17 type  3   force =    -0.00126493    0.00152227    0.00009861
     atom   18 type  3   force =     0.00085306   -0.00156823   -0.00230740
     atom   19 type  3   force =    -0.00030797   -0.00075081    0.00007563
     atom   20 type  3   force =    -0.00157956    0.00087097   -0.00003045

     Total force =     0.006240     Total SCF correction =     0.000009


     Computing stress (Cartesian axis) and pressure

          total   stress  (Ry/bohr**3)                   (kbar)     P=       -0.38
   0.00000663  -0.00000284  -0.00000214            0.98       -0.42       -0.31
  -0.00000284  -0.00000709  -0.00000174           -0.42       -1.04       -0.26
  -0.00000214  -0.00000174  -0.00000740           -0.31       -0.26       -1.09

     Energy error            =      1.2E-04 Ry
     Gradient error          =      2.3E-03 Ry/Bohr
     Cell gradient error     =      1.1E+00 kbar

     number of scf cycles    =   9
     number of bfgs steps    =   8

     enthalpy           old  =    -113.8151982070 Ry
     enthalpy           new  =    -113.8153157020 Ry

     CASE: enthalpy          _new < enthalpy          _old

     new trust radius        =       0.0241805580 bohr
     new conv_thr            =       0.0000000001 Ry

     new unit-cell volume =   1282.05796 a.u.^3 (   189.98139 Ang^3 )
     density =      0.66010 g/cm^3

CELL_PARAMETERS (alat=  9.57870047)
   0.959824937   0.063539296  -0.035623229
  -0.002585638   1.131508951  -0.096193585
  -0.128365380  -0.336888833   1.375693624

ATOMIC_POSITIONS (crystal)
B             0.3859647280        0.3587003452        0.5513195972
B             0.2003740248        0.1121937668        0.9259752729
Li            0.5519398984        1.0433628895        0.6952571623
Li            0.5458454764        0.5899072381        0.3569725617
Li            0.0763616801        0.6901960738        0.5737957864
Li            0.9045315676        0.2100306056        0.5332934649
Li            0.2797908784        0.5241819705        0.9071720117
Li            0.3911280592        0.0560960658        0.2445963827
H             0.3873945740        0.7188672268        0.1599679751
H             0.5385111758        0.3748943493        0.7105957950
H             0.2745247463        0.9211497258        0.8042346792
H             0.3017245295        0.1399149489        0.5011114921
H             1.0335492774        0.2328304701        0.8471299902
H             0.8072092301        0.6452903453        0.8244005553
H             0.7992170437        0.5264619582        0.1554601891
H             0.8490487904        0.7443186632        0.9216723699
H             1.0881096606        0.0545990420        0.0451966863
H             0.4086636237        0.2318049698        0.0088947136
H            -0.1080833265        0.4563229755        0.2150590024
H             0.7841923622        0.8688793697        0.5178963120



     Writing config-only to output data dir ./Li3BH6_P1.save/
     NEW-OLD atomic charge density approx. for the potential
     extrapolated charge   36.00194, renormalised to   36.00000

     total cpu time spent up to now is     1325.9 secs

     Self-consistent Calculation

     iteration #  1     ecut=   150.00 Ry     beta= 0.70
     Davidson diagonalization with overlap
     ethr =  1.00E-06,  avg # of iterations =  5.6

     total cpu time spent up to now is     1347.7 secs

     total energy              =    -113.81542978 Ry
     estimated scf accuracy    <       0.00007389 Ry

     iteration #  2     ecut=   150.00 Ry     beta= 0.70
     Davidson diagonalization with overlap
     ethr =  2.05E-07,  avg # of iterations =  3.1

     total cpu time spent up to now is     1361.5 secs

     total energy              =    -113.81544231 Ry
     estimated scf accuracy    <       0.00000916 Ry

     iteration #  3     ecut=   150.00 Ry     beta= 0.70
     Davidson diagonalization with overlap
     ethr =  2.54E-08,  avg # of iterations =  3.9

     total cpu time spent up to now is     1376.1 secs

     total energy              =    -113.81544488 Ry
     estimated scf accuracy    <       0.00000187 Ry

     iteration #  4     ecut=   150.00 Ry     beta= 0.70
     Davidson diagonalization with overlap
     ethr =  5.19E-09,  avg # of iterations =  3.9

     total cpu time spent up to now is     1390.4 secs

     total energy              =    -113.81544547 Ry
     estimated scf accuracy    <       0.00000025 Ry

     iteration #  5     ecut=   150.00 Ry     beta= 0.70
     Davidson diagonalization with overlap
     ethr =  6.95E-10,  avg # of iterations =  4.0

     total cpu time spent up to now is     1405.9 secs

     total energy              =    -113.81544555 Ry
     estimated scf accuracy    <          8.4E-09 Ry

     iteration #  6     ecut=   150.00 Ry     beta= 0.70
     Davidson diagonalization with overlap
     ethr =  2.32E-11,  avg # of iterations =  5.5

     total cpu time spent up to now is     1426.9 secs

     total energy              =    -113.81544556 Ry
     estimated scf accuracy    <          2.8E-09 Ry

     iteration #  7     ecut=   150.00 Ry     beta= 0.70
     Davidson diagonalization with overlap
     ethr =  7.67E-12,  avg # of iterations =  2.3

     total cpu time spent up to now is     1439.8 secs

     total energy              =    -113.81544556 Ry
     estimated scf accuracy    <          2.6E-10 Ry

     iteration #  8     ecut=   150.00 Ry     beta= 0.70
     Davidson diagonalization with overlap
     ethr =  7.11E-13,  avg # of iterations =  4.6

     total cpu time spent up to now is     1472.6 secs

     End of self-consistent calculation

     Number of k-points >= 100: set verbosity='high' to print the bands.

     the Fermi energy is     1.7855 ev

!    total energy              =    -113.81544556 Ry
[...]
     MD5 check sum: e912e257baa3777c20ea3d68f190483c
     Pseudo is Ultrasoft, Zval =  3.0
     Generated by new atomic code, or converted to UPF format
     Using radial grid of  751 points,  5 beta functions with: 
                l(1) =   0
                l(2) =   0
                l(3) =   0
                l(4) =   1
                l(5) =   1
     Q(r) pseudized with 10 coefficients,  rinner =    1.150   1.150   1.150


     PseudoPot. # 3 for H  read from file:
     /scratch/antwerpen/209/vsc20922/pseudos/H.pbe-rrkjus_psl.1.0.0.UPF
     MD5 check sum: f52b6d4d1c606e5624b1dc7b2218f220
     Pseudo is Ultrasoft, Zval =  1.0
     Generated using "atomic" code by A. Dal Corso  v.5.1
     Using radial grid of  929 points,  2 beta functions with: 
                l(1) =   0
                l(2) =   0
     Q(r) pseudized with 0 coefficients 


     atomic species   valence    mass     pseudopotential
        B              3.00    10.81350     B ( 1.00)
        Li             3.00     6.96750     Li( 1.00)
        H              1.00     1.00750     H ( 1.00)

     No symmetry found



   Cartesian axes

     site n.     atom                  positions (alat units)
         1           B   tau(   1) = (   0.2947470   0.2499056   0.7066829  )
         2           B   tau(   2) = (   0.0838766  -0.1735547   1.2595025  )
         3           Li  tau(   3) = (   0.4149139   0.9790844   0.8259575  )
         4           Li  tau(   4) = (   0.4668995   0.5835390   0.4079424  )
         5           Li  tau(   5) = (  -0.0147241   0.5906274   0.7124957  )
         6           Li  tau(   6) = (   0.7908935   0.1180500   0.6917484  )
         7           Li  tau(   7) = (   0.1603158   0.3074758   1.1811438  )
         8           Li  tau(   8) = (   0.3545756   0.0022039   0.3148437  )
         9           H   tau(   9) = (   0.3488184   0.7852290   0.1330836  )
        10           H   tau(  10) = (   0.4302707   0.2136403   0.9120283  )
        11           H   tau(  11) = (   0.1433197   0.7840109   1.0069584  )
        12           H   tau(  12) = (   0.2172583   0.0165437   0.6540106  )
        13           H   tau(  13) = (   0.8923819   0.0461039   1.1223822  )
        14           H   tau(  14) = (   0.6800595   0.4980362   1.0680870  )
        15           H   tau(  15) = (   0.7635686   0.5983306   0.1590463  )
        16           H   tau(  16) = (   0.6984148   0.5734092   1.1964573  )
        17           H   tau(  17) = (   1.0462032   0.1246340   0.0311209  )
        18           H   tau(  18) = (   0.4097384   0.2744614  -0.0437562  )
        19           H   tau(  19) = (  -0.1391933   0.4215397   0.2705680  )
        20           H   tau(  20) = (   0.6722940   0.8647426   0.6013975  )

     number of k points=   172  Marzari-Vanderbilt smearing, width (Ry)=  0.0050

     Number of k-points >= 100: set verbosity='high' to print them.

     Dense  grid:   319035 G-vectors     FFT dimensions: (  72,  90, 108)

     Estimated max dynamical RAM per process >     112.32 MB

     Estimated total dynamical RAM >       3.07 GB

     Initial potential from superposition of free atoms

     starting charge      33.2949, renormalised to      36.0000
     Starting wfcs are   50 randomized atomic wfcs

     total cpu time spent up to now is     4805.1 secs

     Self-consistent Calculation

     iteration #  1     ecut=   150.00 Ry     beta= 0.70
     Davidson diagonalization with overlap
     c_bands:  3 eigenvalues not converged
     c_bands:  3 eigenvalues not converged
     c_bands:  2 eigenvalues not converged
     c_bands:  2 eigenvalues not converged
     c_bands:  2 eigenvalues not converged
     c_bands:  3 eigenvalues not converged
     c_bands:  2 eigenvalues not converged
     c_bands:  1 eigenvalues not converged
     c_bands:  2 eigenvalues not converged
     c_bands:  1 eigenvalues not converged
     c_bands:  3 eigenvalues not converged
     c_bands:  2 eigenvalues not converged
     c_bands:  2 eigenvalues not converged
     c_bands:  2 eigenvalues not converged
     c_bands:  3 eigenvalues not converged
     c_bands:  2 eigenvalues not converged
     c_bands:  2 eigenvalues not converged
     c_bands:  2 eigenvalues not converged
     c_bands:  2 eigenvalues not converged
     c_bands:  3 eigenvalues not converged
     c_bands:  3 eigenvalues not converged
     c_bands:  3 eigenvalues not converged
     c_bands:  2 eigenvalues not converged
     c_bands:  3 eigenvalues not converged
     c_bands:  3 eigenvalues not converged
     c_bands:  2 eigenvalues not converged
     c_bands:  2 eigenvalues not converged
     c_bands:  3 eigenvalues not converged
     c_bands:  2 eigenvalues not converged
     c_bands:  3 eigenvalues not converged
     c_bands:  2 eigenvalues not converged
     c_bands:  2 eigenvalues not converged
     c_bands:  3 eigenvalues not converged
     c_bands:  2 eigenvalues not converged
     c_bands:  2 eigenvalues not converged
     c_bands:  2 eigenvalues not converged
     c_bands:  2 eigenvalues not converged
     c_bands:  2 eigenvalues not converged
     c_bands:  3 eigenvalues not converged
     c_bands:  3 eigenvalues not converged
     c_bands:  1 eigenvalues not converged
     c_bands:  1 eigenvalues not converged
     c_bands:  1 eigenvalues not converged
     c_bands:  2 eigenvalues not converged
     c_bands:  2 eigenvalues not converged
     c_bands:  1 eigenvalues not converged
     c_bands:  3 eigenvalues not converged
     c_bands:  3 eigenvalues not converged
     c_bands:  1 eigenvalues not converged
     c_bands:  2 eigenvalues not converged
     c_bands:  2 eigenvalues not converged
     c_bands:  2 eigenvalues not converged
     c_bands:  3 eigenvalues not converged
     c_bands:  3 eigenvalues not converged
     c_bands:  3 eigenvalues not converged
     c_bands:  2 eigenvalues not converged
     c_bands:  2 eigenvalues not converged
     c_bands:  3 eigenvalues not converged
     c_bands:  3 eigenvalues not converged
     c_bands:  3 eigenvalues not converged
     c_bands:  3 eigenvalues not converged
     c_bands:  3 eigenvalues not converged
     c_bands:  2 eigenvalues not converged
     c_bands:  2 eigenvalues not converged
     c_bands:  2 eigenvalues not converged
     c_bands:  2 eigenvalues not converged
     c_bands:  2 eigenvalues not converged
     c_bands:  2 eigenvalues not converged
     c_bands:  2 eigenvalues not converged
     c_bands:  2 eigenvalues not converged
     c_bands:  2 eigenvalues not converged
     c_bands:  2 eigenvalues not converged
     c_bands:  3 eigenvalues not converged
     c_bands:  3 eigenvalues not converged
     c_bands:  1 eigenvalues not converged
     c_bands:  1 eigenvalues not converged
     c_bands:  2 eigenvalues not converged
     c_bands:  2 eigenvalues not converged
     c_bands:  3 eigenvalues not converged
     c_bands:  3 eigenvalues not converged
     c_bands:  2 eigenvalues not converged
     c_bands:  2 eigenvalues not converged
     c_bands:  2 eigenvalues not converged
     c_bands:  2 eigenvalues not converged
     c_bands:  2 eigenvalues not converged
     c_bands:  2 eigenvalues not converged
     c_bands:  2 eigenvalues not converged
     c_bands:  2 eigenvalues not converged
     c_bands:  2 eigenvalues not converged
     c_bands:  2 eigenvalues not converged
     c_bands:  2 eigenvalues not converged
     c_bands:  2 eigenvalues not converged
     c_bands:  2 eigenvalues not converged
     c_bands:  2 eigenvalues not converged
     c_bands:  2 eigenvalues not converged
     c_bands:  2 eigenvalues not converged
     c_bands:  1 eigenvalues not converged
     c_bands:  1 eigenvalues not converged
     c_bands:  2 eigenvalues not converged
     c_bands:  2 eigenvalues not converged
     c_bands:  2 eigenvalues not converged
     c_bands:  2 eigenvalues not converged
     c_bands:  2 eigenvalues not converged
     c_bands:  1 eigenvalues not converged
     c_bands:  1 eigenvalues not converged
     c_bands:  2 eigenvalues not converged
     c_bands:  2 eigenvalues not converged
     c_bands:  2 eigenvalues not converged
     c_bands:  3 eigenvalues not converged
     c_bands:  2 eigenvalues not converged
     c_bands:  1 eigenvalues not converged
     c_bands:  1 eigenvalues not converged
     c_bands:  1 eigenvalues not converged
     c_bands:  1 eigenvalues not converged
     c_bands:  2 eigenvalues not converged
     c_bands:  2 eigenvalues not converged
     c_bands:  2 eigenvalues not converged
     c_bands:  1 eigenvalues not converged
     c_bands:  1 eigenvalues not converged
     c_bands:  1 eigenvalues not converged
     c_bands:  2 eigenvalues not converged
     c_bands:  2 eigenvalues not converged
     c_bands:  2 eigenvalues not converged
     c_bands:  1 eigenvalues not converged
     c_bands:  1 eigenvalues not converged
     c_bands:  2 eigenvalues not converged
     c_bands:  2 eigenvalues not converged
     c_bands:  3 eigenvalues not converged
     c_bands:  2 eigenvalues not converged
     c_bands:  2 eigenvalues not converged
     c_bands:  1 eigenvalues not converged
     c_bands:  2 eigenvalues not converged
     c_bands:  2 eigenvalues not converged
     c_bands:  2 eigenvalues not converged
     c_bands:  2 eigenvalues not converged
     c_bands:  2 eigenvalues not converged
     c_bands:  2 eigenvalues not converged
     c_bands:  2 eigenvalues not converged
     c_bands:  2 eigenvalues not converged
     c_bands:  2 eigenvalues not converged
     c_bands:  1 eigenvalues not converged
     c_bands:  2 eigenvalues not converged
     c_bands:  2 eigenvalues not converged
     c_bands:  2 eigenvalues not converged
     c_bands:  2 eigenvalues not converged
     c_bands:  1 eigenvalues not converged
     c_bands:  2 eigenvalues not converged
     c_bands:  2 eigenvalues not converged
     c_bands:  2 eigenvalues not converged
     c_bands:  2 eigenvalues not converged
     c_bands:  2 eigenvalues not converged
     c_bands:  2 eigenvalues not converged
     c_bands:  1 eigenvalues not converged
     c_bands:  2 eigenvalues not converged
     c_bands:  2 eigenvalues not converged
     c_bands:  2 eigenvalues not converged
     c_bands:  2 eigenvalues not converged
     c_bands:  2 eigenvalues not converged
     c_bands:  2 eigenvalues not converged
     c_bands:  1 eigenvalues not converged
     c_bands:  2 eigenvalues not converged
     c_bands:  2 eigenvalues not converged
     c_bands:  2 eigenvalues not converged
     c_bands:  2 eigenvalues not converged
     c_bands:  2 eigenvalues not converged
     c_bands:  1 eigenvalues not converged
     c_bands:  1 eigenvalues not converged
     c_bands:  1 eigenvalues not converged
     c_bands:  1 eigenvalues not converged
     c_bands:  2 eigenvalues not converged
     c_bands:  2 eigenvalues not converged
     c_bands:  2 eigenvalues not converged
     ethr =  1.00E-06,  avg # of iterations = 20.0

     total cpu time spent up to now is     4868.7 secs

     total energy              =    -113.44235550 Ry
     estimated scf accuracy    <       1.45454812 Ry

     iteration #  2     ecut=   150.00 Ry     beta= 0.70
     Davidson diagonalization with overlap
     ethr =  4.04E-03,  avg # of iterations =  2.6

     total cpu time spent up to now is     4882.0 secs

     total energy              =    -113.60920943 Ry
     estimated scf accuracy    <       0.76065907 Ry

     iteration #  3     ecut=   150.00 Ry     beta= 0.70
     Davidson diagonalization with overlap
     ethr =  2.11E-03,  avg # of iterations =  3.7

     total cpu time spent up to now is     4894.6 secs

     total energy              =    -113.80372912 Ry
     estimated scf accuracy    <       0.05478243 Ry

     iteration #  4     ecut=   150.00 Ry     beta= 0.70
     Davidson diagonalization with overlap
     ethr =  1.52E-04,  avg # of iterations =  3.5

     total cpu time spent up to now is     4907.9 secs

     total energy              =    -113.81438140 Ry
     estimated scf accuracy    <       0.00446173 Ry

     iteration #  5     ecut=   150.00 Ry     beta= 0.70
     Davidson diagonalization with overlap
     c_bands:  1 eigenvalues not converged
     c_bands:  1 eigenvalues not converged
     c_bands:  1 eigenvalues not converged
     c_bands:  1 eigenvalues not converged
     c_bands:  1 eigenvalues not converged
     c_bands:  1 eigenvalues not converged
     c_bands:  1 eigenvalues not converged
     c_bands:  1 eigenvalues not converged
     c_bands:  1 eigenvalues not converged
     c_bands:  1 eigenvalues not converged
     c_bands:  1 eigenvalues not converged
     ethr =  1.24E-05,  avg # of iterations = 11.2

     total cpu time spent up to now is     4930.3 secs

     total energy              =    -113.81664382 Ry
     estimated scf accuracy    <       0.00042710 Ry

     iteration #  6     ecut=   150.00 Ry     beta= 0.70
     Davidson diagonalization with overlap
     ethr =  1.19E-06,  avg # of iterations =  6.2

     total cpu time spent up to now is     4947.2 secs

     total energy              =    -113.81679229 Ry
     estimated scf accuracy    <       0.00002978 Ry

     iteration #  7     ecut=   150.00 Ry     beta= 0.70
     Davidson diagonalization with overlap
     ethr =  8.27E-08,  avg # of iterations =  4.4

     total cpu time spent up to now is     4963.4 secs

     total energy              =    -113.81680515 Ry
     estimated scf accuracy    <       0.00000491 Ry

     iteration #  8     ecut=   150.00 Ry     beta= 0.70
     Davidson diagonalization with overlap
     ethr =  1.36E-08,  avg # of iterations =  4.0

     total cpu time spent up to now is     4979.1 secs

     total energy              =    -113.81680727 Ry
     estimated scf accuracy    <       0.00000053 Ry

     iteration #  9     ecut=   150.00 Ry     beta= 0.70
     Davidson diagonalization with overlap
     ethr =  1.47E-09,  avg # of iterations =  4.0

     total cpu time spent up to now is     5012.2 secs

     total energy              =    -113.81680748 Ry
     estimated scf accuracy    <       0.00000005 Ry

     iteration # 10     ecut=   150.00 Ry     beta= 0.70
     Davidson diagonalization with overlap
     ethr =  1.50E-10,  avg # of iterations =  4.6

     total cpu time spent up to now is     5034.6 secs

     total energy              =    -113.81680751 Ry
     estimated scf accuracy    <          4.5E-09 Ry

     iteration # 11     ecut=   150.00 Ry     beta= 0.70
     Davidson diagonalization with overlap
     ethr =  1.25E-11,  avg # of iterations =  4.6

     total cpu time spent up to now is     5051.9 secs

     total energy              =    -113.81680751 Ry
     estimated scf accuracy    <          2.2E-10 Ry

     iteration # 12     ecut=   150.00 Ry     beta= 0.70
     Davidson diagonalization with overlap
     ethr =  6.16E-13,  avg # of iterations =  5.6

     total cpu time spent up to now is     5072.3 secs

     End of self-consistent calculation

     Number of k-points >= 100: set verbosity='high' to print the bands.

     the Fermi energy is     1.7751 ev

!    total energy              =    -113.81680751 Ry
     estimated scf accuracy    <          4.0E-11 Ry
     smearing contrib. (-TS)   =       0.00000000 Ry
     internal energy E=F+TS    =    -113.81680751 Ry

     The total energy is F=E-TS. E is the sum of the following terms:
     one-electron contribution =     -64.87504256 Ry
     hartree contribution      =      30.64123803 Ry
     xc contribution           =     -34.92918977 Ry
     ewald contribution        =     -44.65381321 Ry

     convergence has been achieved in  12 iterations

     Forces acting on atoms (cartesian axes, Ry/au):

     atom    1 type  1   force =    -0.00020515   -0.00017382    0.00013610
     atom    2 type  1   force =     0.00031166    0.00020046   -0.00021370
     atom    3 type  2   force =    -0.00024199   -0.00001699    0.00007180
     atom    4 type  2   force =     0.00001562   -0.00046974    0.00025437
     atom    5 type  2   force =     0.00040283   -0.00042852    0.00035136
     atom    6 type  2   force =     0.00048575    0.00022587   -0.00022054
     atom    7 type  2   force =     0.00005658    0.00036639    0.00039699
     atom    8 type  2   force =    -0.00013296    0.00009559   -0.00016911
     atom    9 type  3   force =     0.00041015   -0.00003916   -0.00035132
     atom   10 type  3   force =    -0.00000352    0.00064439   -0.00024456
     atom   11 type  3   force =    -0.00066292    0.00011063   -0.00047938
     atom   12 type  3   force =    -0.00003777   -0.00005974    0.00000224
     atom   13 type  3   force =    -0.00022463   -0.00015272   -0.00048873
     atom   14 type  3   force =     0.00001139   -0.00017231    0.00011365
     atom   15 type  3   force =     0.00025621   -0.00069756    0.00066296
     atom   16 type  3   force =     0.00007093   -0.00048577   -0.00004440
     atom   17 type  3   force =    -0.00028162    0.00042645   -0.00039452
     atom   18 type  3   force =     0.00015636    0.00026065    0.00044413
     atom   19 type  3   force =    -0.00036813    0.00036361    0.00000915
     atom   20 type  3   force =    -0.00001877    0.00000232    0.00016351

     Total force =     0.002414     Total SCF correction =     0.000004


     Computing stress (Cartesian axis) and pressure

          total   stress  (Ry/bohr**3)                   (kbar)     P=        0.04
   0.00000250   0.00000063   0.00000142            0.37        0.09        0.21
   0.00000063  -0.00000256  -0.00000038            0.09       -0.38       -0.06
   0.00000142  -0.00000038   0.00000081            0.21       -0.06        0.12


     Writing all to output data dir ./Li3BH6_P1.save/
 
     init_run     :     20.42s CPU     21.00s WALL (       2 calls)
     electrons    :   4536.10s CPU   4733.98s WALL (      34 calls)
     update_pot   :     40.09s CPU     40.32s WALL (      32 calls)
     forces       :     88.87s CPU     89.95s WALL (      34 calls)
     stress       :    185.63s CPU    187.30s WALL (      34 calls)

     Called by init_run:
     wfcinit      :     18.35s CPU     18.82s WALL (       2 calls)
     potinit      :      0.79s CPU      0.85s WALL (       2 calls)
     hinit0       :      1.05s CPU      1.07s WALL (       2 calls)

     Called by electrons:
     c_bands      :   3964.62s CPU   4149.05s WALL (     293 calls)
     sum_band     :    559.50s CPU    567.89s WALL (     293 calls)
     v_of_rho     :      5.40s CPU      5.45s WALL (     314 calls)
     newd         :      6.12s CPU      6.26s WALL (     314 calls)
     mix_rho      :      1.12s CPU      1.14s WALL (     293 calls)

     Called by c_bands:
     init_us_2    :    103.98s CPU    108.42s WALL (  112832 calls)
     init_us_2:cp :    103.25s CPU    107.97s WALL (  112832 calls)
     cegterg      :   3689.26s CPU   3745.67s WALL (   50396 calls)

     Called by *egterg:
     cdiaghg      :    138.41s CPU    140.12s WALL (  235941 calls)
     h_psi        :   2897.55s CPU   2945.23s WALL (  244025 calls)
     s_psi        :    176.02s CPU    178.15s WALL (  244025 calls)
     g_psi        :     27.10s CPU     27.47s WALL (  193285 calls)

     Called by h_psi:
     h_psi:calbec :    235.56s CPU    238.98s WALL (  244025 calls)
     vloc_psi     :   2459.92s CPU   2502.13s WALL (  244025 calls)
     add_vuspsi   :    181.40s CPU    183.40s WALL (  244025 calls)

     General routines
     calbec       :    334.81s CPU    339.63s WALL (  323661 calls)
     fft          :      3.75s CPU      3.80s WALL (    4349 calls)
     ffts         :      0.22s CPU      0.22s WALL (     293 calls)
     fftw         :   2536.66s CPU   2578.93s WALL ( 7882458 calls)
 
     Parallel routines
 
     PWSCF        :      1h21m CPU      1h24m WALL

 
   This run was terminated on:  18:58:45   8Dec2023            

=------------------------------------------------------------------------------=
   JOB DONE.
=------------------------------------------------------------------------------=
