
     Program PWSCF v.7.1 starts on  6Dec2023 at 19:36:38 

     This program is part of the open-source Quantum ESPRESSO suite
     for quantum simulation of materials; please cite
         "P. Giannozzi et al., J. Phys.:Condens. Matter 21 395502 (2009);
         "P. Giannozzi et al., J. Phys.:Condens. Matter 29 465901 (2017);
         "P. Giannozzi et al., J. Chem. Phys. 152 154105 (2020);
          URL http://www.quantum-espresso.org", 
     in publications or presentations arising from this work. More details at
     http://www.quantum-espresso.org/quote

     Parallel version (MPI & OpenMP), running on      28 processor cores
     Number of MPI processes:                28
     Threads/MPI process:                     1

     MPI processes distributed on     1 nodes
     119447 MiB available memory on the printing compute node when the environment starts
 
     Reading input from Li5Al3H14.in

     Current dimensions of program PWSCF are:
     Max number of different atomic species (ntypx) = 10
     Max number of k-points (npk) =  40000
     Max angular momentum in pseudopotentials (lmaxx) =  4
     file Al.pbe-n-kjpaw_psl.1.0.0.UPF: wavefunction(s)  3S 3P renormalized

     IMPORTANT: XC functional enforced from input :
     Exchange-correlation= PBE
                           (   1   4   3   4   0   0   0)
     Any further DFT definition will be discarded
     Please, verify this is what you really want

     Message from routine set_cutoff:
     ecutrho < 4*ecutwfc, are you sure?
     Message from routine setup:
     using ibrav=0 with symmetry is DISCOURAGED, use correct ibrav instead
 
     R & G space division:  proc/nbgrp/npool/nimage =      28
     Subspace diagonalization in iterative solution of the eigenvalue problem:
     a serial algorithm will be used

 
     Parallelization info
     --------------------
     sticks:   dense  smooth     PW     G-vecs:    dense   smooth      PW
     Min          90      90     33                 5230     5230    1201
     Max          91      91     34                 5235     5235    1210
     Sum        2537    2537    949               146519   146519   33809
 
     Using Slab Decomposition
 


     bravais-lattice index     =            0
     lattice parameter (alat)  =      12.6114  a.u.
     unit-cell volume          =    3067.3055 (a.u.)^3
     number of atoms/cell      =           44
     number of atomic types    =            3
     number of electrons       =        76.00
     number of Kohn-Sham states=           46
     kinetic-energy cutoff     =      70.0000  Ry
     charge density cutoff     =     200.0000  Ry
     scf convergence threshold =      1.0E-08
     mixing beta               =       0.7000
     number of iterations used =            8  plain     mixing
     energy convergence thresh.=      1.0E-04
     force convergence thresh. =      1.0E-03
     press convergence thresh. =      5.0E-01
     Exchange-correlation= PBE
                           (   1   4   3   4   0   0   0)
     nstep                     =           50


     celldm(1)=  12.611352  celldm(2)=   0.000000  celldm(3)=   0.000000
     celldm(4)=   0.000000  celldm(5)=   0.000000  celldm(6)=   0.000000

     crystal axes: (cart. coord. in units of alat)
               a(1) = (   1.000000   0.000000   0.000000 )  
               a(2) = (   0.000000   1.000000   0.000000 )  
               a(3) = (   0.000000   0.000000   1.529228 )  

     reciprocal axes: (cart. coord. in units 2 pi/alat)
               b(1) = (  1.000000  0.000000  0.000000 )  
               b(2) = (  0.000000  1.000000  0.000000 )  
               b(3) = (  0.000000  0.000000  0.653925 )  


     PseudoPot. # 1 for Al read from file:
     /scratch/antwerpen/209/vsc20922/pseudos/Al.pbe-n-kjpaw_psl.1.0.0.UPF
     MD5 check sum: cfc449ca30b5f3223ec38ddd88ac046d
     Pseudo is Projector augmented-wave + core cor, Zval =  3.0
     Generated using "atomic" code by A. Dal Corso  v.5.1
     Shape of augmentation charge: PSQ
     Using radial grid of 1135 points,  6 beta functions with: 
                l(1) =   0
                l(2) =   0
                l(3) =   1
                l(4) =   1
                l(5) =   2
                l(6) =   2
     Q(r) pseudized with 0 coefficients 


     PseudoPot. # 2 for Li read from file:
     /scratch/antwerpen/209/vsc20922/pseudos/li_pbe_v1.4.uspp.F.UPF
     MD5 check sum: e912e257baa3777c20ea3d68f190483c
     Pseudo is Ultrasoft, Zval =  3.0
     Generated by new atomic code, or converted to UPF format
     Using radial grid of  751 points,  5 beta functions with: 
                l(1) =   0
                l(2) =   0
                l(3) =   0
                l(4) =   1
                l(5) =   1
     Q(r) pseudized with 10 coefficients,  rinner =    1.150   1.150   1.150


     PseudoPot. # 3 for H  read from file:
     /scratch/antwerpen/209/vsc20922/pseudos/H.pbe-rrkjus_psl.1.0.0.UPF
     MD5 check sum: f52b6d4d1c606e5624b1dc7b2218f220
     Pseudo is Ultrasoft, Zval =  1.0
     Generated using "atomic" code by A. Dal Corso  v.5.1
     Using radial grid of  929 points,  2 beta functions with: 
                l(1) =   0
                l(2) =   0
     Q(r) pseudized with 0 coefficients 


     atomic species   valence    mass     pseudopotential
        Al             3.00    26.98100     Al( 1.00)
        Li             3.00     6.96750     Li( 1.00)
        H              1.00     1.00750     H ( 1.00)

     16 Sym. Ops., with inversion, found ( 8 have fractional translation)



   Cartesian axes

     site n.     atom                  positions (alat units)
         1           Al  tau(   1) = (   0.0000000   0.0000000   0.0000000  )
         2           Al  tau(   2) = (   0.5000000   0.5000000   0.7646138  )
         3           Al  tau(   3) = (   0.0000000   0.5000000   0.0000000  )
         4           Al  tau(   4) = (   0.5000000   0.0000000   0.0000000  )
         5           Al  tau(   5) = (   0.5000000   0.0000000   0.7646138  )
         6           Al  tau(   6) = (   0.0000000   0.5000000   0.7646138  )
         7           Li  tau(   7) = (   0.0000000   0.0000000   0.7646138  )
         8           Li  tau(   8) = (   0.5000000   0.5000000   0.0000000  )
         9           Li  tau(   9) = (   0.2873471   0.7873471   0.3823069  )
        10           Li  tau(  10) = (   0.2126529   0.2873471   0.3823069  )
        11           Li  tau(  11) = (   0.7873471   0.7126529   0.3823069  )
        12           Li  tau(  12) = (   0.7126529   0.2126529   0.3823069  )
        13           Li  tau(  13) = (   0.2873471   0.7873471   1.1469206  )
        14           Li  tau(  14) = (   0.2126529   0.2873471   1.1469206  )
        15           Li  tau(  15) = (   0.7873471   0.7126529   1.1469206  )
        16           Li  tau(  16) = (   0.7126529   0.2126529   1.1469206  )
        17           H   tau(  17) = (   0.5437980   0.8200507   0.1797052  )
        18           H   tau(  18) = (   0.4562020   0.1799493   0.1797052  )
        19           H   tau(  19) = (   0.3200507   0.0437980   0.5849086  )
        20           H   tau(  20) = (   0.8200507   0.4562020   0.1797052  )
        21           H   tau(  21) = (   0.1799493   0.5437980   0.1797052  )
        22           H   tau(  22) = (   0.9562020   0.3200507   0.5849086  )
        23           H   tau(  23) = (   0.0437980   0.6799493   0.5849086  )
        24           H   tau(  24) = (   0.6799493   0.9562020   0.5849086  )
        25           H   tau(  25) = (   0.4562020   0.1799493   1.3495223  )
        26           H   tau(  26) = (   0.5437980   0.8200507   1.3495223  )
        27           H   tau(  27) = (   0.6799493   0.9562020   0.9443189  )
        28           H   tau(  28) = (   0.1799493   0.5437980   1.3495223  )
        29           H   tau(  29) = (   0.8200507   0.4562020   1.3495223  )
        30           H   tau(  30) = (   0.0437980   0.6799493   0.9443189  )
        31           H   tau(  31) = (   0.9562020   0.3200507   0.9443189  )
        32           H   tau(  32) = (   0.3200507   0.0437980   0.9443189  )
        33           H   tau(  33) = (   0.0000000   0.0000000   0.2607407  )
        34           H   tau(  34) = (   0.5000000   0.5000000   0.5038731  )
        35           H   tau(  35) = (   0.0000000   0.0000000   1.2684868  )
        36           H   tau(  36) = (   0.5000000   0.5000000   1.0253544  )
        37           H   tau(  37) = (   0.7523734   0.0751217   0.0000000  )
        38           H   tau(  38) = (   0.9248783   0.7523734   0.0000000  )
        39           H   tau(  39) = (   0.0751217   0.2476266   0.0000000  )
        40           H   tau(  40) = (   0.2523734   0.4248783   0.7646138  )
        41           H   tau(  41) = (   0.7476266   0.5751217   0.7646138  )
        42           H   tau(  42) = (   0.2476266   0.9248783   0.0000000  )
        43           H   tau(  43) = (   0.5751217   0.2523734   0.7646138  )
        44           H   tau(  44) = (   0.4248783   0.7476266   0.7646138  )

     number of k points=    18  Marzari-Vanderbilt smearing, width (Ry)=  0.0050
                       cart. coord. in units 2pi/alat
        k(    1) = (   0.0000000   0.0000000   0.0000000), wk =   0.0160000
        k(    2) = (   0.0000000   0.0000000   0.1307850), wk =   0.0320000
        k(    3) = (   0.0000000   0.0000000   0.2615700), wk =   0.0320000
        k(    4) = (   0.0000000   0.2000000   0.0000000), wk =   0.0640000
        k(    5) = (   0.0000000   0.2000000   0.1307850), wk =   0.1280000
        k(    6) = (   0.0000000   0.2000000   0.2615700), wk =   0.1280000
        k(    7) = (   0.0000000   0.4000000   0.0000000), wk =   0.0640000
        k(    8) = (   0.0000000   0.4000000   0.1307850), wk =   0.1280000
        k(    9) = (   0.0000000   0.4000000   0.2615700), wk =   0.1280000
        k(   10) = (   0.2000000   0.2000000   0.0000000), wk =   0.0640000
        k(   11) = (   0.2000000   0.2000000   0.1307850), wk =   0.1280000
        k(   12) = (   0.2000000   0.2000000   0.2615700), wk =   0.1280000
        k(   13) = (   0.2000000   0.4000000   0.0000000), wk =   0.1280000
        k(   14) = (   0.2000000   0.4000000   0.1307850), wk =   0.2560000
        k(   15) = (   0.2000000   0.4000000   0.2615700), wk =   0.2560000
        k(   16) = (   0.4000000   0.4000000   0.0000000), wk =   0.0640000
        k(   17) = (   0.4000000   0.4000000   0.1307850), wk =   0.1280000
        k(   18) = (   0.4000000   0.4000000   0.2615700), wk =   0.1280000

     Dense  grid:   146519 G-vectors     FFT dimensions: (  60,  60,  90)

     Estimated max dynamical RAM per process >      50.50 MB

     Estimated total dynamical RAM >       1.38 GB

     Initial potential from superposition of free atoms

     starting charge      71.4786, renormalised to      76.0000
     Starting wfcs are  102 randomized atomic wfcs
     Checking if some PAW data can be deallocated... 

     total cpu time spent up to now is        3.3 secs

     Self-consistent Calculation

     iteration #  1     ecut=    70.00 Ry     beta= 0.70
     Davidson diagonalization with overlap
     ethr =  1.00E-02,  avg # of iterations =  3.4

     total cpu time spent up to now is        6.2 secs

     total energy              =    -414.61501292 Ry
     estimated scf accuracy    <       1.72793541 Ry

     iteration #  2     ecut=    70.00 Ry     beta= 0.70
     Davidson diagonalization with overlap
     ethr =  2.27E-03,  avg # of iterations =  2.0

     total cpu time spent up to now is        9.0 secs

     total energy              =    -414.80605725 Ry
     estimated scf accuracy    <       0.05800929 Ry

     iteration #  3     ecut=    70.00 Ry     beta= 0.70
     Davidson diagonalization with overlap
     ethr =  7.63E-05,  avg # of iterations = 12.1

     total cpu time spent up to now is       14.7 secs

     total energy              =    -414.86753884 Ry
     estimated scf accuracy    <       0.01446400 Ry

     iteration #  4     ecut=    70.00 Ry     beta= 0.70
     Davidson diagonalization with overlap
     ethr =  1.90E-05,  avg # of iterations =  8.2

     total cpu time spent up to now is       18.1 secs

     total energy              =    -414.86840205 Ry
     estimated scf accuracy    <       0.00096249 Ry

     iteration #  5     ecut=    70.00 Ry     beta= 0.70
     Davidson diagonalization with overlap
     c_bands:  2 eigenvalues not converged
     ethr =  1.27E-06,  avg # of iterations = 10.4

     total cpu time spent up to now is       22.8 secs

     total energy              =    -414.86867581 Ry
     estimated scf accuracy    <       0.00054819 Ry

     iteration #  6     ecut=    70.00 Ry     beta= 0.70
     Davidson diagonalization with overlap
     c_bands:  1 eigenvalues not converged
     ethr =  7.21E-07,  avg # of iterations =  3.1

     total cpu time spent up to now is       25.7 secs

     total energy              =    -414.86873600 Ry
     estimated scf accuracy    <       0.00000428 Ry

     iteration #  7     ecut=    70.00 Ry     beta= 0.70
     Davidson diagonalization with overlap
     ethr =  5.63E-09,  avg # of iterations =  7.6

     total cpu time spent up to now is       31.2 secs

     total energy              =    -414.86874977 Ry
     estimated scf accuracy    <       0.00001168 Ry

     iteration #  8     ecut=    70.00 Ry     beta= 0.70
     Davidson diagonalization with overlap
     ethr =  5.63E-09,  avg # of iterations =  2.2

     total cpu time spent up to now is       34.0 secs

     total energy              =    -414.86875148 Ry
     estimated scf accuracy    <       0.00000003 Ry

     iteration #  9     ecut=    70.00 Ry     beta= 0.70
     Davidson diagonalization with overlap
     ethr =  3.92E-11,  avg # of iterations =  7.6

     total cpu time spent up to now is       39.6 secs

     total energy              =    -414.86875144 Ry
     estimated scf accuracy    <       0.00000046 Ry

     iteration # 10     ecut=    70.00 Ry     beta= 0.70
     Davidson diagonalization with overlap
     ethr =  3.92E-11,  avg # of iterations =  4.3

     total cpu time spent up to now is       43.1 secs

     End of self-consistent calculation

          k = 0.0000 0.0000 0.0000 ( 30351 PWs)   bands (ev):

   -45.7573 -45.7573 -45.2688 -45.2688 -45.2669 -45.2669 -45.2669 -45.2669
   -45.2653 -45.2653  -7.4142  -7.1874  -5.5375  -5.1807  -4.1954  -3.9277
    -3.9099  -3.8256  -3.8256  -3.7224  -3.7224  -2.6394  -2.5868  -2.3663
    -2.3663  -2.3540  -2.0682  -2.0682  -1.4613  -1.3797  -0.9058  -0.7155
    -0.7155  -0.4637  -0.1480  -0.1003  -0.1003   0.2648   2.7972   3.9443
     4.5069   4.5069   4.6080   4.8257   4.9501   5.2150

          k = 0.0000 0.0000 0.1308 ( 30331 PWs)   bands (ev):

   -45.7573 -45.7573 -45.2688 -45.2688 -45.2669 -45.2669 -45.2669 -45.2669
   -45.2653 -45.2653  -7.3950  -7.2120  -5.5095  -5.2229  -4.1927  -3.9557
    -3.8159  -3.8159  -3.8104  -3.7324  -3.7324  -2.7519  -2.5354  -2.3453
    -2.3453  -2.2896  -2.1077  -2.1077  -1.5564  -1.5425  -0.7167  -0.6446
    -0.6446  -0.3925  -0.1602  -0.1497  -0.1497   0.2031   2.8878   3.9171
     4.4536   4.4536   4.6135   4.7561   4.8520   4.9441

          k = 0.0000 0.0000 0.2616 ( 30364 PWs)   bands (ev):

   -45.7573 -45.7573 -45.2688 -45.2688 -45.2669 -45.2669 -45.2669 -45.2669
   -45.2653 -45.2653  -7.3425  -7.2729  -5.4313  -5.3230  -4.1475  -4.0556
    -3.7904  -3.7904  -3.7585  -3.7585  -3.5201  -3.1333  -2.2848  -2.2848
    -2.2590  -2.1961  -2.1961  -2.0701  -1.8919  -1.7921  -0.4745  -0.4745
    -0.3427  -0.2870  -0.2870  -0.2792  -0.2007  -0.0029   3.1682   3.5930
     4.4491   4.4491   4.6207   4.6207   4.6209   4.8204

          k = 0.0000 0.2000 0.0000 ( 30327 PWs)   bands (ev):

   -45.7573 -45.7573 -45.2686 -45.2686 -45.2671 -45.2671 -45.2668 -45.2668
   -45.2654 -45.2654  -7.3184  -7.0995  -5.7586  -5.4522  -4.5480  -4.3577
    -3.8390  -3.7615  -3.6674  -3.0696  -2.9812  -2.7934  -2.5130  -2.5070
    -2.3373  -2.3317  -2.2146  -2.1473  -1.6126  -1.5226  -0.8222  -0.6437
    -0.6113  -0.4889  -0.1945  -0.0859  -0.0699   0.1948   3.1035   4.1432
     4.4550   4.5489   4.6807   4.7128   4.7513   4.9780

          k = 0.0000 0.2000 0.1308 ( 30323 PWs)   bands (ev):

   -45.7573 -45.7573 -45.2686 -45.2686 -45.2671 -45.2671 -45.2668 -45.2668
   -45.2654 -45.2654  -7.2997  -7.1229  -5.7344  -5.4877  -4.5388  -4.3833
    -3.7524  -3.7370  -3.6761  -3.0606  -2.9981  -2.7592  -2.6284  -2.4893
    -2.3809  -2.2832  -2.2139  -2.1485  -1.6815  -1.6069  -0.7089  -0.6142
    -0.5196  -0.4310  -0.2045  -0.1752  -0.1146   0.1941   3.1744   4.0908
     4.3561   4.4267   4.6011   4.6904   4.9066   5.0004

          k = 0.0000 0.2000 0.2616 ( 30317 PWs)   bands (ev):

   -45.7573 -45.7573 -45.2686 -45.2686 -45.2671 -45.2671 -45.2668 -45.2668
   -45.2654 -45.2654  -7.2487  -7.1814  -5.6666  -5.5731  -4.5033  -4.4431
    -3.7288  -3.6998  -3.4649  -3.1124  -3.0363  -2.9907  -2.4754  -2.4412
    -2.3693  -2.3372  -2.2904  -2.0010  -1.9219  -1.7091  -0.5481  -0.5154
    -0.3632  -0.3458  -0.2988  -0.2681  -0.1154   0.0864   3.3871   3.7209
     4.3460   4.4359   4.5341   4.6845   4.9896   5.0853

          k = 0.0000 0.4000 0.0000 ( 30350 PWs)   bands (ev):

   -45.7573 -45.7573 -45.2682 -45.2682 -45.2676 -45.2676 -45.2664 -45.2664
   -45.2659 -45.2659  -7.0682  -6.9292  -6.1374  -5.9726  -4.6158  -4.5354
    -3.6155  -3.5827  -3.5658  -3.1968  -2.7681  -2.7418  -2.4439  -2.4231
    -2.2789  -2.1379  -1.9424  -1.8903  -1.8321  -1.6681  -0.9952  -0.8039
    -0.5356  -0.5101  -0.2255  -0.0490  -0.0283  -0.0103   3.8549   4.2780
     4.3484   4.4009   4.5385   4.5555   4.9554   4.9899

          k = 0.0000 0.4000 0.1308 ( 30348 PWs)   bands (ev):

   -45.7573 -45.7573 -45.2682 -45.2682 -45.2676 -45.2676 -45.2664 -45.2664
   -45.2659 -45.2659  -7.0540  -6.9408  -6.1302  -5.9963  -4.6110  -4.5451
    -3.6099  -3.5702  -3.4873  -3.1155  -2.7673  -2.7313  -2.5495  -2.5230
    -2.3647  -2.1281  -2.0605  -1.8332  -1.7385  -1.6322  -0.9519  -0.7906
    -0.5339  -0.4888  -0.2390  -0.2041  -0.0188   0.1072   3.9079   4.2346
     4.3767   4.4174   4.4633   4.5688   4.8301   4.9912

          k = 0.0000 0.4000 0.2616 ( 30307 PWs)   bands (ev):

   -45.7573 -45.7573 -45.2682 -45.2682 -45.2676 -45.2676 -45.2664 -45.2664
   -45.2659 -45.2659  -7.0173  -6.9736  -6.1019  -6.0505  -4.5945  -4.5688
    -3.5962  -3.5809  -3.2392  -2.9988  -2.7395  -2.7015  -2.6999  -2.6458
    -2.5622  -2.4335  -1.8941  -1.8321  -1.5986  -1.5860  -0.8812  -0.8129
    -0.5172  -0.4684  -0.3233  -0.3191   0.0754   0.1468   4.0066   4.1044
     4.2834   4.2976   4.6733   4.6742   4.9907   5.0517

          k = 0.2000 0.2000 0.0000 ( 30314 PWs)   bands (ev):

   -45.7573 -45.7573 -45.2684 -45.2684 -45.2670 -45.2670 -45.2669 -45.2669
   -45.2656 -45.2656  -7.2205  -7.0063  -5.8532  -5.5472  -4.9603  -4.8565
    -3.7509  -3.2322  -3.1596  -3.0345  -2.8865  -2.7845  -2.5938  -2.5585
    -2.4594  -2.3145  -2.1332  -1.9493  -1.7680  -1.5956  -0.7988  -0.6718
    -0.5866  -0.5068  -0.3073  -0.0409   0.0439   0.1218   3.2844   4.2007
     4.4054   4.4601   4.4986   4.7554   4.8045   5.0998

          k = 0.2000 0.2000 0.1308 ( 30319 PWs)   bands (ev):

   -45.7573 -45.7573 -45.2684 -45.2684 -45.2670 -45.2670 -45.2669 -45.2669
   -45.2656 -45.2656  -7.2021  -7.0292  -5.8284  -5.5820  -4.9554  -4.8701
    -3.6540  -3.2285  -3.1714  -3.0277  -2.8969  -2.7412  -2.6884  -2.5776
    -2.4384  -2.2862  -2.1351  -1.9757  -1.7429  -1.7375  -0.7590  -0.7247
    -0.5060  -0.4149  -0.3081  -0.0883   0.0059   0.1479   3.3449   4.0711
     4.2906   4.5605   4.6645   4.7760   4.8419   4.9496

          k = 0.2000 0.2000 0.2616 ( 30335 PWs)   bands (ev):

   -45.7573 -45.7573 -45.2684 -45.2684 -45.2670 -45.2670 -45.2669 -45.2669
   -45.2656 -45.2656  -7.1521  -7.0862  -5.7598  -5.6664  -4.9361  -4.9028
    -3.3965  -3.2214  -3.1901  -3.0548  -2.9687  -2.9316  -2.6265  -2.5824
    -2.4051  -2.1096  -2.0884  -2.0648  -1.9706  -1.7958  -0.7735  -0.7518
    -0.3988  -0.3327  -0.1525  -0.1116  -0.0695   0.0750   3.5132   3.7569
     4.4313   4.5471   4.7264   4.8524   4.9915   4.9952

          k = 0.2000 0.4000 0.0000 ( 30330 PWs)   bands (ev):

   -45.7573 -45.7573 -45.2680 -45.2680 -45.2674 -45.2674 -45.2665 -45.2665
   -45.2660 -45.2660  -6.9612  -6.8164  -6.1303  -5.9483  -5.1558  -5.1185
    -3.4969  -3.2398  -3.1697  -3.1180  -2.9066  -2.7535  -2.4353  -2.1155
    -2.1085  -2.1044  -2.0151  -1.8260  -1.8156  -1.6619  -0.9809  -0.8460
    -0.6734  -0.6047  -0.3521  -0.1086   0.1066   0.1379   3.7638   4.0920
     4.1236   4.3002   4.5429   4.7042   4.7920   4.8835

          k = 0.2000 0.4000 0.1308 ( 30336 PWs)   bands (ev):

   -45.7573 -45.7573 -45.2680 -45.2680 -45.2674 -45.2674 -45.2665 -45.2665
   -45.2660 -45.2660  -6.9467  -6.8288  -6.1198  -5.9721  -5.1553  -5.1245
    -3.4212  -3.2749  -3.1785  -3.0125  -2.8964  -2.7864  -2.4059  -2.2395
    -2.1658  -2.0936  -2.0082  -1.9212  -1.7375  -1.6372  -0.9739  -0.8635
    -0.7440  -0.6500  -0.2489  -0.0699   0.1079   0.1345   3.8329   4.1100
     4.2199   4.3581   4.5898   4.6259   4.8202   4.9340

          k = 0.2000 0.4000 0.2616 ( 30331 PWs)   bands (ev):

   -45.7573 -45.7573 -45.2680 -45.2680 -45.2674 -45.2674 -45.2665 -45.2665
   -45.2660 -45.2660  -6.9088  -6.8633  -6.0848  -6.0281  -5.1501  -5.1379
    -3.3293  -3.3053  -3.0712  -2.9028  -2.8460  -2.7552  -2.6416  -2.3919
    -2.1971  -2.1829  -1.9514  -1.8906  -1.6640  -1.6096  -1.0164  -0.9928
    -0.7415  -0.7044  -0.0855  -0.0288   0.0930   0.1319   3.9603   4.0717
     4.3860   4.4754   4.6222   4.7019   4.8400   5.0019

          k = 0.4000 0.4000 0.0000 ( 30348 PWs)   bands (ev):

   -45.7573 -45.7573 -45.2675 -45.2675 -45.2670 -45.2670 -45.2670 -45.2670
   -45.2665 -45.2665  -6.6649  -6.5194  -6.1851  -5.9081  -5.8270  -5.7231
    -3.4856  -3.4606  -3.2527  -2.9729  -2.7350  -2.4721  -2.0884  -1.9657
    -1.9560  -1.8347  -1.7400  -1.6744  -1.6128  -1.5996  -1.1050  -0.9473
    -0.8332  -0.7735  -0.6535  -0.4148   0.3211   0.3340   3.7330   3.7754
     3.7956   3.9402   4.4499   4.6929   4.7260   4.9084

          k = 0.4000 0.4000 0.1308 ( 30312 PWs)   bands (ev):

   -45.7573 -45.7573 -45.2675 -45.2675 -45.2670 -45.2670 -45.2670 -45.2670
   -45.2665 -45.2665  -6.6507  -6.5326  -6.1622  -5.9390  -5.8203  -5.7376
    -3.5286  -3.5154  -3.1366  -2.8852  -2.6243  -2.3894  -2.1344  -2.1134
    -1.9437  -1.9403  -1.7629  -1.6716  -1.6198  -1.5733  -1.1050  -1.0492
    -0.9758  -0.9158  -0.4250  -0.2892   0.3237   0.3322   3.8300   3.8923
     3.9153   4.0455   4.4090   4.6436   4.7267   4.9607

          k = 0.4000 0.4000 0.2616 ( 30367 PWs)   bands (ev):

   -45.7573 -45.7573 -45.2675 -45.2675 -45.2670 -45.2670 -45.2670 -45.2670
   -45.2665 -45.2665  -6.6135  -6.5682  -6.0994  -6.0147  -5.8005  -5.7697
    -3.5830  -3.5786  -2.8700  -2.6500  -2.5533  -2.3480  -2.3063  -2.2603
    -1.9806  -1.8672  -1.8638  -1.7309  -1.6235  -1.5835  -1.2619  -1.2495
    -0.9706  -0.9382  -0.2288  -0.1812   0.3262   0.3284   4.0292   4.0558
     4.1829   4.2896   4.3247   4.5115   4.9724   5.2760

     the Fermi energy is     1.0443 ev

!    total energy              =    -414.86875151 Ry
     estimated scf accuracy    <          3.3E-09 Ry
     smearing contrib. (-TS)   =       0.00000000 Ry
     internal energy E=F+TS    =    -414.86875151 Ry

     The total energy is F=E-TS. E is the sum of the following terms:
     one-electron contribution =     -78.79121872 Ry
     hartree contribution      =      42.33823151 Ry
     xc contribution           =     -69.23382232 Ry
     ewald contribution        =    -101.16337855 Ry
     one-center paw contrib.   =    -208.01856343 Ry

     convergence has been achieved in  10 iterations

     Forces acting on atoms (cartesian axes, Ry/au):

     atom    1 type  1   force =     0.00000000    0.00000000    0.00000000
     atom    2 type  1   force =     0.00000000    0.00000000    0.00000000
     atom    3 type  1   force =     0.00000000    0.00000000    0.00000000
     atom    4 type  1   force =     0.00000000    0.00000000    0.00000000
     atom    5 type  1   force =     0.00000000    0.00000000    0.00000000
     atom    6 type  1   force =     0.00000000    0.00000000    0.00000000
     atom    7 type  2   force =     0.00000000    0.00000000   -0.00000000
     atom    8 type  2   force =     0.00000000    0.00000000    0.00000000
     atom    9 type  2   force =    -0.00102032   -0.00102032    0.00000000
     atom   10 type  2   force =     0.00102032   -0.00102032   -0.00000000
     atom   11 type  2   force =    -0.00102032    0.00102032   -0.00000000
     atom   12 type  2   force =     0.00102032    0.00102032    0.00000000
     atom   13 type  2   force =    -0.00102032   -0.00102032   -0.00000000
     atom   14 type  2   force =     0.00102032   -0.00102032    0.00000000
     atom   15 type  2   force =    -0.00102032    0.00102032    0.00000000
     atom   16 type  2   force =     0.00102032    0.00102032   -0.00000000
     atom   17 type  3   force =    -0.00068352   -0.01308728    0.01606863
     atom   18 type  3   force =     0.00068352    0.01308728    0.01606863
     atom   19 type  3   force =    -0.01308728   -0.00068352   -0.01606863
     atom   20 type  3   force =    -0.01308728    0.00068352    0.01606863
     atom   21 type  3   force =     0.01308728   -0.00068352    0.01606863
     atom   22 type  3   force =     0.00068352   -0.01308728   -0.01606863
     atom   23 type  3   force =    -0.00068352    0.01308728   -0.01606863
     atom   24 type  3   force =     0.01308728    0.00068352   -0.01606863
     atom   25 type  3   force =     0.00068352    0.01308728   -0.01606863
     atom   26 type  3   force =    -0.00068352   -0.01308728   -0.01606863
     atom   27 type  3   force =     0.01308728    0.00068352    0.01606863
     atom   28 type  3   force =     0.01308728   -0.00068352   -0.01606863
     atom   29 type  3   force =    -0.01308728    0.00068352   -0.01606863
     atom   30 type  3   force =    -0.00068352    0.01308728    0.01606863
     atom   31 type  3   force =     0.00068352   -0.01308728    0.01606863
     atom   32 type  3   force =    -0.01308728   -0.00068352    0.01606863
     atom   33 type  3   force =     0.00000000    0.00000000    0.00956950
     atom   34 type  3   force =     0.00000000    0.00000000   -0.00956950
     atom   35 type  3   force =     0.00000000    0.00000000   -0.00956950
     atom   36 type  3   force =     0.00000000    0.00000000    0.00956950
     atom   37 type  3   force =    -0.00223878    0.00189439    0.00000000
     atom   38 type  3   force =    -0.00189439   -0.00223878    0.00000000
     atom   39 type  3   force =     0.00189439    0.00223878    0.00000000
     atom   40 type  3   force =    -0.00223878   -0.00189439    0.00000000
     atom   41 type  3   force =     0.00223878    0.00189439    0.00000000
     atom   42 type  3   force =     0.00223878   -0.00189439    0.00000000
     atom   43 type  3   force =     0.00189439   -0.00223878    0.00000000
     atom   44 type  3   force =    -0.00189439    0.00223878    0.00000000

     Total force =     0.085621     Total SCF correction =     0.000008


     Computing stress (Cartesian axis) and pressure

          total   stress  (Ry/bohr**3)                   (kbar)     P=      -34.79
  -0.00024805   0.00000000   0.00000000          -36.49        0.00        0.00
   0.00000000  -0.00024805   0.00000000            0.00      -36.49        0.00
   0.00000000   0.00000000  -0.00021329            0.00        0.00      -31.38


     BFGS Geometry Optimization
     Energy error            =      0.0E+00 Ry
     Gradient error          =      1.6E-02 Ry/Bohr
     Cell gradient error     =      3.6E+01 kbar

     number of scf cycles    =   1
     number of bfgs steps    =   0

     enthalpy           new  =    -414.8687515126 Ry

     new trust radius        =       0.0686899241 bohr
     new conv_thr            =       0.0000000100 Ry

     new unit-cell volume =   3013.22716 a.u.^3 (   446.51420 Ang^3 )
     density =      0.96606 g/cm^3

CELL_PARAMETERS (alat= 12.61135185)
   0.993798675   0.000000000   0.000000000
   0.000000000   0.993798675   0.000000000
   0.000000000   0.000000000   1.521073216

ATOMIC_POSITIONS (crystal)
Al            0.0000000000        0.0000000000        0.0000000000
Al            0.5000000000        0.5000000000        0.5000000000
Al            0.0000000000        0.5000000000        0.0000000000
Al            0.5000000000        0.0000000000        0.0000000000
Al            0.5000000000        0.0000000000        0.5000000000
Al            0.0000000000        0.5000000000        0.5000000000
Li            0.0000000000        0.0000000000        0.5000000000
Li            0.5000000000        0.5000000000        0.0000000000
Li            0.2872661953        0.7872661953        0.2500000000
Li            0.2127338047        0.2872661953        0.2500000000
Li            0.7872661953        0.7127338047        0.2500000000
Li            0.7127338047        0.2127338047        0.2500000000
Li            0.2872661953        0.7872661953        0.7500000000
Li            0.2127338047        0.2872661953        0.7500000000
Li            0.7872661953        0.7127338047        0.7500000000
Li            0.7127338047        0.2127338047        0.7500000000
H             0.5437437613        0.8190129519        0.1183468923
H             0.4562562387        0.1809870481        0.1183468923
H             0.3190129519        0.0437437613        0.3816531077
H             0.8190129519        0.4562562387        0.1183468923
H             0.1809870481        0.5437437613        0.1183468923
H             0.9562562387        0.3190129519        0.3816531077
H             0.0437437613        0.6809870481        0.3816531077
H             0.6809870481        0.9562562387        0.3816531077
H             0.4562562387        0.1809870481        0.8816531077
H             0.5437437613        0.8190129519        0.8816531077
H             0.6809870481        0.9562562387        0.6183468923
H             0.1809870481        0.5437437613        0.8816531077
H             0.8190129519        0.4562562387        0.8816531077
H             0.0437437613        0.6809870481        0.6183468923
H             0.9562562387        0.3190129519        0.6183468923
H             0.3190129519        0.0437437613        0.6183468923
H             0.0000000000        0.0000000000        0.1710010287
H             0.5000000000        0.5000000000        0.3289989713
H             0.0000000000        0.0000000000        0.8289989713
H             0.5000000000        0.5000000000        0.6710010287
H             0.7521958493        0.0752719430        0.0000000000
H             0.9247280570        0.7521958493        0.0000000000
H             0.0752719430        0.2478041507        0.0000000000
H             0.2521958493        0.4247280570        0.5000000000
H             0.7478041507        0.5752719430        0.5000000000
H             0.2478041507        0.9247280570        0.0000000000
H             0.5752719430        0.2521958493        0.5000000000
H             0.4247280570        0.7478041507        0.5000000000



     Writing config-only to output data dir ./Li5Al3H14.save/
     NEW-OLD atomic charge density approx. for the potential
     extrapolated charge   74.71718, renormalised to   76.00000

     total cpu time spent up to now is       50.1 secs

     Self-consistent Calculation

     iteration #  1     ecut=    70.00 Ry     beta= 0.70
     Davidson diagonalization with overlap
     ethr =  1.00E-06,  avg # of iterations =  5.0

     total cpu time spent up to now is       54.6 secs

     total energy              =    -414.88580476 Ry
     estimated scf accuracy    <       0.00099831 Ry

     iteration #  2     ecut=    70.00 Ry     beta= 0.70
     Davidson diagonalization with overlap
     ethr =  1.31E-06,  avg # of iterations =  5.5

     total cpu time spent up to now is       58.9 secs

     total energy              =    -414.88813767 Ry
     estimated scf accuracy    <       0.00097824 Ry

     iteration #  3     ecut=    70.00 Ry     beta= 0.70
     Davidson diagonalization with overlap
     ethr =  1.29E-06,  avg # of iterations =  1.8

     total cpu time spent up to now is       61.3 secs

     total energy              =    -414.88805901 Ry
     estimated scf accuracy    <       0.00026039 Ry

     iteration #  4     ecut=    70.00 Ry     beta= 0.70
     Davidson diagonalization with overlap
     ethr =  3.43E-07,  avg # of iterations =  3.1

     total cpu time spent up to now is       64.2 secs

     total energy              =    -414.88811289 Ry
     estimated scf accuracy    <       0.00000477 Ry

     iteration #  5     ecut=    70.00 Ry     beta= 0.70
     Davidson diagonalization with overlap
     ethr =  6.28E-09,  avg # of iterations =  5.5

     total cpu time spent up to now is       68.4 secs

     total energy              =    -414.88811761 Ry
     estimated scf accuracy    <       0.00000116 Ry

     iteration #  6     ecut=    70.00 Ry     beta= 0.70
     Davidson diagonalization with overlap
     ethr =  1.52E-09,  avg # of iterations =  2.9

     total cpu time spent up to now is       71.4 secs

     total energy              =    -414.88811770 Ry
     estimated scf accuracy    <       0.00000027 Ry

     iteration #  7     ecut=    70.00 Ry     beta= 0.70
     Davidson diagonalization with overlap
     ethr =  3.59E-10,  avg # of iterations =  4.0

     total cpu time spent up to now is       74.7 secs

     total energy              =    -414.88811780 Ry
     estimated scf accuracy    <       0.00000009 Ry

     iteration #  8     ecut=    70.00 Ry     beta= 0.70
     Davidson diagonalization with overlap
     ethr =  1.16E-10,  avg # of iterations =  3.4

     total cpu time spent up to now is       77.8 secs

     total energy              =    -414.88811782 Ry
     estimated scf accuracy    <       0.00000008 Ry

     iteration #  9     ecut=    70.00 Ry     beta= 0.70
     Davidson diagonalization with overlap
     ethr =  1.08E-10,  avg # of iterations =  2.0

     total cpu time spent up to now is       80.4 secs

     End of self-consistent calculation

          k = 0.0000 0.0000 0.0000 ( 30351 PWs)   bands (ev):

   -45.6129 -45.6129 -45.1266 -45.1266 -45.1246 -45.1246 -45.1246 -45.1246
   -45.1228 -45.1228  -7.4152  -7.1842  -5.4884  -5.1193  -4.1365  -3.9088
    -3.8377  -3.8114  -3.8114  -3.7087  -3.7087  -2.5931  -2.5358  -2.3114
    -2.3077  -2.3077  -1.9973  -1.9973  -1.3822  -1.2924  -0.8602  -0.6665
    -0.6665  -0.4187  -0.0864  -0.0364  -0.0364   0.3403   2.9123   4.0506
     4.5882   4.5882   4.7078   4.9320   5.0889   5.3763

          k = 0.0000 0.0000 0.1315 ( 30331 PWs)   bands (ev):

   -45.6129 -45.6129 -45.1266 -45.1266 -45.1246 -45.1246 -45.1246 -45.1246
   -45.1228 -45.1228  -7.3956  -7.2092  -5.4595  -5.1632  -4.1364  -3.8869
    -3.8018  -3.8018  -3.7863  -3.7187  -3.7187  -2.7057  -2.4861  -2.2860
    -2.2860  -2.2427  -2.0389  -2.0389  -1.4807  -1.4635  -0.6656  -0.5932
    -0.5932  -0.3415  -0.0988  -0.0866  -0.0866   0.2769   3.0056   4.0371
     4.5377   4.5378   4.7309   4.8544   4.9601   5.0494

          k = 0.0000 0.0000 0.2630 ( 30364 PWs)   bands (ev):

   -45.6129 -45.6129 -45.1266 -45.1266 -45.1246 -45.1246 -45.1246 -45.1246
   -45.1228 -45.1228  -7.3422  -7.2713  -5.3790  -5.2671  -4.0900  -3.9931
    -3.7765  -3.7765  -3.7447  -3.7447  -3.4896  -3.0957  -2.2234  -2.2234
    -2.2022  -2.1313  -2.1313  -2.0130  -1.8249  -1.7246  -0.4184  -0.4184
    -0.2823  -0.2266  -0.2266  -0.2219  -0.1404   0.0656   3.2930   3.7257
     4.5379   4.5379   4.7160   4.7160   4.7178   4.9251

          k = 0.0000 0.2012 0.0000 ( 30327 PWs)   bands (ev):

   -45.6129 -45.6129 -45.1264 -45.1264 -45.1248 -45.1248 -45.1244 -45.1244
   -45.1229 -45.1229  -7.3181  -7.0952  -5.7203  -5.4064  -4.5013  -4.3033
    -3.8187  -3.7471  -3.6535  -3.0271  -2.9330  -2.7517  -2.4609  -2.4513
    -2.2875  -2.2843  -2.1474  -2.0823  -1.5398  -1.4441  -0.7713  -0.5891
    -0.5579  -0.4394  -0.1301  -0.0194  -0.0031   0.2702   3.2246   4.2507
     4.5393   4.6619   4.7916   4.8125   4.8868   5.0745

          k = 0.0000 0.2012 0.1315 ( 30323 PWs)   bands (ev):

   -45.6129 -45.6129 -45.1264 -45.1264 -45.1248 -45.1248 -45.1244 -45.1244
   -45.1229 -45.1229  -7.2990  -7.1191  -5.6955  -5.4429  -4.4922  -4.3302
    -3.7381  -3.7145  -3.6621  -3.0177  -2.9528  -2.7121  -2.5838  -2.4331
    -2.3337  -2.2209  -2.1525  -2.0887  -1.6081  -1.5329  -0.6539  -0.5601
    -0.4642  -0.3768  -0.1403  -0.1102  -0.0493   0.2682   3.2962   4.2169
     4.4463   4.5168   4.7027   4.7988   5.0052   5.1252

          k = 0.0000 0.2012 0.2630 ( 30317 PWs)   bands (ev):

   -45.6129 -45.6129 -45.1264 -45.1264 -45.1248 -45.1248 -45.1244 -45.1244
   -45.1229 -45.1229  -7.2472  -7.1787  -5.6263  -5.5306  -4.4556  -4.3929
    -3.7146  -3.6857  -3.4373  -3.0794  -2.9917  -2.9420  -2.4271  -2.3840
    -2.3122  -2.2817  -2.2317  -1.9376  -1.8570  -1.6369  -0.4885  -0.4580
    -0.3038  -0.2860  -0.2366  -0.2045  -0.0520   0.1562   3.5102   3.8454
     4.4353   4.5309   4.6333   4.7852   5.1043   5.1957

          k = 0.0000 0.4025 0.0000 ( 30350 PWs)   bands (ev):

   -45.6129 -45.6129 -45.1259 -45.1259 -45.1253 -45.1253 -45.1240 -45.1239
   -45.1234 -45.1234  -7.0644  -6.9233  -6.1111  -5.9435  -4.5608  -4.4762
    -3.6014  -3.5582  -3.5524  -3.1649  -2.7183  -2.6918  -2.3730  -2.3573
    -2.2220  -2.0865  -1.8781  -1.8439  -1.7690  -1.6143  -0.9364  -0.7466
    -0.4771  -0.4526  -0.1604   0.0218   0.0434   0.0610   3.9868   4.3829
     4.4722   4.4900   4.6356   4.7081   5.0597   5.1099

          k = 0.0000 0.4025 0.1315 ( 30348 PWs)   bands (ev):

   -45.6129 -45.6129 -45.1259 -45.1259 -45.1253 -45.1253 -45.1240 -45.1239
   -45.1234 -45.1234  -7.0501  -6.9351  -6.1038  -5.9677  -4.5559  -4.4865
    -3.5959  -3.5567  -3.4606  -3.0814  -2.7173  -2.6814  -2.4959  -2.4585
    -2.3089  -2.0739  -2.0003  -1.7691  -1.6790  -1.5754  -0.8915  -0.7311
    -0.4747  -0.4293  -0.1737  -0.1374   0.0498   0.1788   4.0396   4.3315
     4.4777   4.5169   4.5825   4.7122   4.9504   5.1144

          k = 0.0000 0.4025 0.2630 ( 30307 PWs)   bands (ev):

   -45.6129 -45.6129 -45.1259 -45.1259 -45.1253 -45.1253 -45.1239 -45.1239
   -45.1234 -45.1234  -7.0128  -6.9684  -6.0754  -6.0230  -4.5386  -4.5115
    -3.5824  -3.5673  -3.2067  -2.9586  -2.6988  -2.6519  -2.6518  -2.5912
    -2.5053  -2.3829  -1.8267  -1.7663  -1.5328  -1.5244  -0.8196  -0.7514
    -0.4558  -0.4043  -0.2632  -0.2580   0.1432   0.2169   4.1277   4.2061
     4.3827   4.4050   4.8026   4.8109   5.1120   5.1795

          k = 0.2012 0.2012 0.0000 ( 30314 PWs)   bands (ev):

   -45.6129 -45.6129 -45.1262 -45.1262 -45.1246 -45.1246 -45.1246 -45.1246
   -45.1231 -45.1231  -7.2187  -7.0009  -5.8174  -5.5036  -4.9282  -4.8220
    -3.7292  -3.2041  -3.1269  -2.9844  -2.8356  -2.7418  -2.5484  -2.5127
    -2.4117  -2.2669  -2.0632  -1.8756  -1.7016  -1.5188  -0.7498  -0.6185
    -0.5275  -0.4526  -0.2430   0.0260   0.1145   0.1974   3.4062   4.3042
     4.5265   4.5553   4.6360   4.8520   4.8917   5.2299

          k = 0.2012 0.2012 0.1315 ( 30319 PWs)   bands (ev):

   -45.6129 -45.6129 -45.1262 -45.1262 -45.1246 -45.1246 -45.1246 -45.1246
   -45.1231 -45.1231  -7.2000  -7.0241  -5.7920  -5.5394  -4.9234  -4.8360
    -3.6303  -3.2002  -3.1397  -2.9770  -2.8446  -2.7003  -2.6444  -2.5327
    -2.3925  -2.2349  -2.0664  -1.9033  -1.6733  -1.6662  -0.7040  -0.6736
    -0.4491  -0.3555  -0.2435  -0.0213   0.0752   0.2224   3.4663   4.1864
     4.3870   4.6817   4.7628   4.8727   4.9721   5.0748

          k = 0.2012 0.2012 0.2630 ( 30335 PWs)   bands (ev):

   -45.6129 -45.6129 -45.1262 -45.1262 -45.1246 -45.1246 -45.1246 -45.1246
   -45.1231 -45.1231  -7.1492  -7.0822  -5.7218  -5.6261  -4.9039  -4.8697
    -3.3677  -3.1920  -3.1600  -3.0163  -2.9203  -2.8780  -2.5873  -2.5419
    -2.3520  -2.0413  -2.0291  -1.9968  -1.9056  -1.7267  -0.7215  -0.6948
    -0.3384  -0.2690  -0.0870  -0.0450  -0.0022   0.1463   3.6323   3.8719
     4.5336   4.6474   4.8280   4.9658   5.1143   5.1188

          k = 0.2012 0.4025 0.0000 ( 30330 PWs)   bands (ev):

   -45.6129 -45.6129 -45.1257 -45.1257 -45.1251 -45.1251 -45.1241 -45.1241
   -45.1236 -45.1236  -6.9560  -6.8093  -6.1033  -5.9183  -5.1205  -5.0814
    -3.4707  -3.2051  -3.1330  -3.0843  -2.8664  -2.7092  -2.3872  -2.0597
    -2.0482  -2.0365  -1.9376  -1.7649  -1.7590  -1.6051  -0.9253  -0.7884
    -0.6163  -0.5438  -0.2874  -0.0364   0.1785   0.2111   3.8886   4.2022
     4.2492   4.4415   4.6324   4.7964   4.9191   5.0086

          k = 0.2012 0.4025 0.1315 ( 30336 PWs)   bands (ev):

   -45.6129 -45.6129 -45.1257 -45.1257 -45.1251 -45.1251 -45.1241 -45.1241
   -45.1236 -45.1236  -6.9413  -6.8218  -6.0927  -5.9426  -5.1200  -5.0877
    -3.3929  -3.2406  -3.1422  -2.9772  -2.8562  -2.7443  -2.3530  -2.1914
    -2.1026  -2.0347  -1.9313  -1.8558  -1.6790  -1.5787  -0.9158  -0.8068
    -0.6864  -0.5890  -0.1834   0.0012   0.1799   0.2073   3.9583   4.2208
     4.3453   4.4921   4.6899   4.7305   4.9435   5.0550

          k = 0.2012 0.4025 0.2630 ( 30331 PWs)   bands (ev):

   -45.6129 -45.6129 -45.1257 -45.1257 -45.1251 -45.1251 -45.1241 -45.1241
   -45.1236 -45.1236  -6.9029  -6.8568  -6.0573  -5.9996  -5.1146  -5.1018
    -3.2954  -3.2710  -3.0366  -2.8668  -2.8057  -2.7107  -2.5991  -2.3432
    -2.1381  -2.1207  -1.8776  -1.8209  -1.6020  -1.5493  -0.9613  -0.9391
    -0.6812  -0.6432  -0.0169   0.0417   0.1640   0.2043   4.0802   4.1887
     4.5075   4.5909   4.7373   4.8211   4.9651   5.1314

          k = 0.4025 0.4025 0.0000 ( 30348 PWs)   bands (ev):

   -45.6129 -45.6129 -45.1252 -45.1252 -45.1247 -45.1247 -45.1246 -45.1246
   -45.1240 -45.1240  -6.6559  -6.5102  -6.1586  -5.8751  -5.8042  -5.6951
    -3.4537  -3.4278  -3.2218  -2.9343  -2.6979  -2.4270  -2.0390  -1.9089
    -1.9025  -1.7657  -1.6569  -1.6086  -1.5485  -1.5304  -1.0547  -0.8862
    -0.7793  -0.7156  -0.5878  -0.3425   0.3979   0.4112   3.8614   3.8964
     3.9184   4.0757   4.5656   4.8048   4.8249   4.9943

          k = 0.4025 0.4025 0.1315 ( 30312 PWs)   bands (ev):

   -45.6129 -45.6129 -45.1252 -45.1252 -45.1247 -45.1247 -45.1246 -45.1246
   -45.1240 -45.1240  -6.6416  -6.5233  -6.1353  -5.9069  -5.7972  -5.7104
    -3.4978  -3.4842  -3.1029  -2.8449  -2.5838  -2.3422  -2.0794  -2.0639
    -1.8928  -1.8801  -1.6843  -1.5976  -1.5531  -1.5081  -1.0522  -0.9960
    -0.9179  -0.8543  -0.3573  -0.2164   0.4008   0.4096   3.9579   4.0202
     4.0363   4.1805   4.5280   4.7576   4.8240   5.0546

          k = 0.4025 0.4025 0.2630 ( 30367 PWs)   bands (ev):

   -45.6129 -45.6129 -45.1252 -45.1252 -45.1247 -45.1247 -45.1246 -45.1246
   -45.1240 -45.1240  -6.6043  -6.5589  -6.0711  -5.9844  -5.7764  -5.7441
    -3.5535  -3.5488  -2.8306  -2.6052  -2.5061  -2.3003  -2.2579  -2.2101
    -1.9252  -1.8147  -1.8007  -1.6633  -1.5514  -1.5151  -1.2086  -1.1965
    -0.9106  -0.8764  -0.1567  -0.1073   0.4039   0.4062   4.1516   4.1753
     4.3187   4.4204   4.4571   4.6315   5.0836   5.3981

     the Fermi energy is     1.1686 ev

!    total energy              =    -414.88811783 Ry
     estimated scf accuracy    <          1.6E-09 Ry
     smearing contrib. (-TS)   =       0.00000000 Ry
     internal energy E=F+TS    =    -414.88811783 Ry

     The total energy is F=E-TS. E is the sum of the following terms:
     one-electron contribution =     -77.72560848 Ry
     hartree contribution      =      42.07391777 Ry
     xc contribution           =     -69.32845125 Ry
     ewald contribution        =    -101.88400254 Ry
     one-center paw contrib.   =    -208.02397332 Ry

     convergence has been achieved in   9 iterations

     Forces acting on atoms (cartesian axes, Ry/au):

     atom    1 type  1   force =     0.00000000    0.00000000    0.00000000
     atom    2 type  1   force =     0.00000000    0.00000000    0.00000000
     atom    3 type  1   force =     0.00000000    0.00000000   -0.00000000
     atom    4 type  1   force =     0.00000000    0.00000000    0.00000000
     atom    5 type  1   force =     0.00000000    0.00000000    0.00000000
     atom    6 type  1   force =     0.00000000    0.00000000    0.00000000
     atom    7 type  2   force =     0.00000000    0.00000000   -0.00000000
     atom    8 type  2   force =     0.00000000    0.00000000    0.00000000
     atom    9 type  2   force =    -0.00114510   -0.00114510   -0.00000000
     atom   10 type  2   force =     0.00114510   -0.00114510    0.00000000
     atom   11 type  2   force =    -0.00114510    0.00114510    0.00000000
     atom   12 type  2   force =     0.00114510    0.00114510   -0.00000000
     atom   13 type  2   force =    -0.00114510   -0.00114510    0.00000000
     atom   14 type  2   force =     0.00114510   -0.00114510   -0.00000000
     atom   15 type  2   force =    -0.00114510    0.00114510   -0.00000000
     atom   16 type  2   force =     0.00114510    0.00114510    0.00000000
     atom   17 type  3   force =    -0.00054955   -0.01271592    0.01523751
     atom   18 type  3   force =     0.00054955    0.01271592    0.01523751
     atom   19 type  3   force =    -0.01271592   -0.00054955   -0.01523751
     atom   20 type  3   force =    -0.01271592    0.00054955    0.01523751
     atom   21 type  3   force =     0.01271592   -0.00054955    0.01523751
     atom   22 type  3   force =     0.00054955   -0.01271592   -0.01523751
     atom   23 type  3   force =    -0.00054955    0.01271592   -0.01523751
     atom   24 type  3   force =     0.01271592    0.00054955   -0.01523751
     atom   25 type  3   force =     0.00054955    0.01271592   -0.01523751
     atom   26 type  3   force =    -0.00054955   -0.01271592   -0.01523751
     atom   27 type  3   force =     0.01271592    0.00054955    0.01523751
     atom   28 type  3   force =     0.01271592   -0.00054955   -0.01523751
     atom   29 type  3   force =    -0.01271592    0.00054955   -0.01523751
     atom   30 type  3   force =    -0.00054955    0.01271592    0.01523751
     atom   31 type  3   force =     0.00054955   -0.01271592    0.01523751
     atom   32 type  3   force =    -0.01271592   -0.00054955    0.01523751
     atom   33 type  3   force =     0.00000000    0.00000000    0.01030691
     atom   34 type  3   force =     0.00000000    0.00000000   -0.01030691
     atom   35 type  3   force =     0.00000000    0.00000000   -0.01030691
     atom   36 type  3   force =     0.00000000    0.00000000    0.01030691
     atom   37 type  3   force =    -0.00235282    0.00300832    0.00000000
     atom   38 type  3   force =    -0.00300832   -0.00235282    0.00000000
     atom   39 type  3   force =     0.00300832    0.00235282    0.00000000
     atom   40 type  3   force =    -0.00235282   -0.00300832   -0.00000000
     atom   41 type  3   force =     0.00235282    0.00300832    0.00000000
     atom   42 type  3   force =     0.00235282   -0.00300832    0.00000000
     atom   43 type  3   force =     0.00300832   -0.00235282   -0.00000000
     atom   44 type  3   force =    -0.00300832    0.00235282   -0.00000000

     Total force =     0.082882     Total SCF correction =     0.000022


     Computing stress (Cartesian axis) and pressure

          total   stress  (Ry/bohr**3)                   (kbar)     P=      -31.13
  -0.00021856   0.00000000   0.00000000          -32.15        0.00        0.00
   0.00000000  -0.00021856   0.00000000            0.00      -32.15        0.00
   0.00000000   0.00000000  -0.00019767            0.00        0.00      -29.08

     Energy error            =      1.9E-02 Ry
     Gradient error          =      1.5E-02 Ry/Bohr
     Cell gradient error     =      3.2E+01 kbar

     number of scf cycles    =   2
     number of bfgs steps    =   1

     enthalpy           old  =    -414.8687515126 Ry
     enthalpy           new  =    -414.8881178262 Ry

     CASE: enthalpy          _new < enthalpy          _old


     WARNING: bfgs curvature condition failed, Theta= 0.878
     new trust radius        =       0.1027598128 bohr
     new conv_thr            =       0.0000000015 Ry

     new unit-cell volume =   2932.39022 a.u.^3 (   434.53540 Ang^3 )
     density =      0.99269 g/cm^3

CELL_PARAMETERS (alat= 12.61135185)
   0.984496686   0.000000000   0.000000000
   0.000000000   0.984496686   0.000000000
   0.000000000   0.000000000   1.508371498

ATOMIC_POSITIONS (crystal)
Al            0.0000000000        0.0000000000        0.0000000000
Al            0.5000000000        0.5000000000        0.5000000000
Al            0.0000000000        0.5000000000       -0.0000000000
Al            0.5000000000        0.0000000000        0.0000000000
Al            0.5000000000        0.0000000000        0.5000000000
Al            0.0000000000        0.5000000000        0.5000000000
Li            0.0000000000        0.0000000000        0.5000000000
Li            0.5000000000        0.5000000000        0.0000000000
Li            0.2871191212        0.7871191212        0.2500000000
Li            0.2128808788        0.2871191212        0.2500000000
Li            0.7871191212        0.7128808788        0.2500000000
Li            0.7128808788        0.2128808788        0.2500000000
Li            0.2871191212        0.7871191212        0.7500000000
Li            0.2128808788        0.2871191212        0.7500000000
Li            0.7871191212        0.7128808788        0.7500000000
Li            0.7128808788        0.2128808788        0.7500000000
H             0.5436675342        0.8173285942        0.1196749981
H             0.4563324658        0.1826714058        0.1196749981
H             0.3173285942        0.0436675342        0.3803250019
H             0.8173285942        0.4563324658        0.1196749981
H             0.1826714058        0.5436675342        0.1196749981
H             0.9563324658        0.3173285942        0.3803250019
H             0.0436675342        0.6826714058        0.3803250019
H             0.6826714058        0.9563324658        0.3803250019
H             0.4563324658        0.1826714058        0.8803250019
H             0.5436675342        0.8173285942        0.8803250019
H             0.6826714058        0.9563324658        0.6196749981
H             0.1826714058        0.5436675342        0.8803250019
H             0.8173285942        0.4563324658        0.8803250019
H             0.0436675342        0.6826714058        0.6196749981
H             0.9563324658        0.3173285942        0.6196749981
H             0.3173285942        0.0436675342        0.6196749981
H             0.0000000000        0.0000000000        0.1718746402
H             0.5000000000        0.5000000000        0.3281253598
H             0.0000000000        0.0000000000        0.8281253598
H             0.5000000000        0.5000000000        0.6718746402
H             0.7518895143        0.0756354376        0.0000000000
H             0.9243645624        0.7518895143        0.0000000000
H             0.0756354376        0.2481104857        0.0000000000
H             0.2518895143        0.4243645624        0.5000000000
H             0.7481104857        0.5756354376        0.5000000000
H             0.2481104857        0.9243645624        0.0000000000
H             0.5756354376        0.2518895143        0.5000000000
H             0.4243645624        0.7481104857        0.5000000000



     Writing config-only to output data dir ./Li5Al3H14.save/
     NEW-OLD atomic charge density approx. for the potential
     extrapolated charge   74.02956, renormalised to   76.00000

     total cpu time spent up to now is       87.4 secs

     Self-consistent Calculation

     iteration #  1     ecut=    70.00 Ry     beta= 0.70
     Davidson diagonalization with overlap
     ethr =  1.00E-06,  avg # of iterations =  8.6

     total cpu time spent up to now is       93.1 secs

     total energy              =    -414.90939161 Ry
     estimated scf accuracy    <       0.00243984 Ry

     iteration #  2     ecut=    70.00 Ry     beta= 0.70
     Davidson diagonalization with overlap
     ethr =  3.21E-06,  avg # of iterations =  5.2

     total cpu time spent up to now is       97.3 secs

     total energy              =    -414.91466015 Ry
     estimated scf accuracy    <       0.00180813 Ry

     iteration #  3     ecut=    70.00 Ry     beta= 0.70
     Davidson diagonalization with overlap
     ethr =  2.38E-06,  avg # of iterations =  1.9

     total cpu time spent up to now is       99.8 secs

     total energy              =    -414.91455174 Ry
     estimated scf accuracy    <       0.00045032 Ry

     iteration #  4     ecut=    70.00 Ry     beta= 0.70
     Davidson diagonalization with overlap
     ethr =  5.93E-07,  avg # of iterations =  3.4

     total cpu time spent up to now is      102.8 secs

     total energy              =    -414.91464506 Ry
     estimated scf accuracy    <       0.00001091 Ry

     iteration #  5     ecut=    70.00 Ry     beta= 0.70
     Davidson diagonalization with overlap
     ethr =  1.44E-08,  avg # of iterations =  5.0

     total cpu time spent up to now is      106.8 secs

     total energy              =    -414.91465362 Ry
     estimated scf accuracy    <       0.00000178 Ry

     iteration #  6     ecut=    70.00 Ry     beta= 0.70
     Davidson diagonalization with overlap
     ethr =  2.35E-09,  avg # of iterations =  3.7

     total cpu time spent up to now is      109.9 secs

     total energy              =    -414.91465378 Ry
     estimated scf accuracy    <       0.00000059 Ry

     iteration #  7     ecut=    70.00 Ry     beta= 0.70
     Davidson diagonalization with overlap
     ethr =  7.76E-10,  avg # of iterations =  3.6

     total cpu time spent up to now is      113.0 secs

     total energy              =    -414.91465396 Ry
     estimated scf accuracy    <       0.00000012 Ry

     iteration #  8     ecut=    70.00 Ry     beta= 0.70
     Davidson diagonalization with overlap
     ethr =  1.61E-10,  avg # of iterations =  3.1

     total cpu time spent up to now is      116.0 secs

     total energy              =    -414.91465399 Ry
     estimated scf accuracy    <       0.00000005 Ry

     iteration #  9     ecut=    70.00 Ry     beta= 0.70
     Davidson diagonalization with overlap
     ethr =  6.39E-11,  avg # of iterations =  2.1

     total cpu time spent up to now is      118.8 secs

     total energy              =    -414.91465400 Ry
     estimated scf accuracy    <          4.3E-09 Ry

     iteration # 10     ecut=    70.00 Ry     beta= 0.70
     Davidson diagonalization with overlap
     ethr =  5.71E-12,  avg # of iterations =  2.6

     total cpu time spent up to now is      121.5 secs

     End of self-consistent calculation

          k = 0.0000 0.0000 0.0000 ( 30351 PWs)   bands (ev):

   -45.3898 -45.3897 -44.9054 -44.9054 -44.9031 -44.9031 -44.9031 -44.9031
   -44.9010 -44.9010  -7.4142  -7.1763  -5.4098  -5.0208  -4.0440  -3.8779
    -3.7884  -3.7884  -3.7228  -3.6861  -3.6861  -2.5188  -2.4523  -2.2452
    -2.2155  -2.2155  -1.8849  -1.8849  -1.2557  -1.1510  -0.7892  -0.5899
    -0.5899  -0.3499   0.0093   0.0640   0.0640   0.4598   3.0914   4.2137
     4.7141   4.7141   4.8617   5.0944   5.3080   5.6297

          k = 0.0000 0.0000 0.1326 ( 30331 PWs)   bands (ev):

   -45.3898 -45.3897 -44.9054 -44.9054 -44.9031 -44.9031 -44.9031 -44.9031
   -44.9010 -44.9010  -7.3941  -7.2021  -5.3796  -5.0676  -4.0497  -3.7789
    -3.7789  -3.7779  -3.7455  -3.6961  -3.6961  -2.6301  -2.4069  -2.1927
    -2.1927  -2.1695  -1.9300  -1.9300  -1.3597  -1.3364  -0.5853  -0.5127
    -0.5127  -0.2619  -0.0034   0.0125   0.0125   0.3937   3.1889   4.2205
     4.6678   4.6678   4.9177   5.0057   5.1250   5.2134

          k = 0.0000 0.0000 0.2652 ( 30364 PWs)   bands (ev):

   -45.3897 -45.3897 -44.9054 -44.9054 -44.9031 -44.9031 -44.9031 -44.9031
   -44.9010 -44.9010  -7.3392  -7.2662  -5.2953  -5.1776  -4.0007  -3.8950
    -3.7536  -3.7536  -3.7219  -3.7219  -3.4391  -3.0341  -2.1267  -2.1267
    -2.1109  -2.0290  -2.0290  -1.9226  -1.7174  -1.6172  -0.3302  -0.3302
    -0.1868  -0.1321  -0.1317  -0.1317  -0.0465   0.1740   3.4878   3.9329
     4.6749   4.6749   4.8635   4.8635   4.8679   5.0850

          k = 0.0000 0.2031 0.0000 ( 30327 PWs)   bands (ev):

   -45.3898 -45.3897 -44.9051 -44.9051 -44.9033 -44.9033 -44.9029 -44.9029
   -44.9012 -44.9012  -7.3150  -7.0856  -5.6592  -5.3337  -4.4278  -4.2167
    -3.7857  -3.7236  -3.6306  -2.9601  -2.8559  -2.6849  -2.3765  -2.3637
    -2.2181  -2.2007  -2.0406  -1.9787  -1.4240  -1.3176  -0.6915  -0.5026
    -0.4744  -0.3626  -0.0292   0.0856   0.1023   0.3894   3.4129   4.4144
     4.6699   4.8368   4.9648   4.9656   5.0940   5.2261

          k = 0.0000 0.2031 0.1326 ( 30323 PWs)   bands (ev):

   -45.3898 -45.3897 -44.9051 -44.9051 -44.9033 -44.9033 -44.9029 -44.9029
   -44.9012 -44.9012  -7.2955  -7.1103  -5.6337  -5.3718  -4.4187  -4.2458
    -3.7147  -3.6780  -3.6391  -2.9498  -2.8812  -2.6355  -2.5123  -2.3446
    -2.2598  -2.1228  -2.0551  -1.9928  -1.4902  -1.4151  -0.5671  -0.4749
    -0.3771  -0.2919  -0.0397  -0.0075   0.0537   0.3856   3.4854   4.4101
     4.5851   4.6582   4.8588   4.9658   5.1593   5.3088

          k = 0.0000 0.2031 0.2652 ( 30317 PWs)   bands (ev):

   -45.3897 -45.3897 -44.9051 -44.9051 -44.9033 -44.9033 -44.9029 -44.9029
   -44.9012 -44.9012  -7.2422  -7.1717  -5.5622  -5.4630  -4.3803  -4.3133
    -3.6914  -3.6627  -3.3926  -3.0260  -2.9212  -2.8647  -2.3505  -2.2939
    -2.2229  -2.1938  -2.1371  -1.8358  -1.7538  -1.5217  -0.3944  -0.3678
    -0.2106  -0.1917  -0.1385  -0.1045   0.0479   0.2666   3.7008   4.0372
     4.5731   4.6774   4.7875   4.9414   5.2762   5.3609

          k = 0.0000 0.4063 0.0000 ( 30350 PWs)   bands (ev):

   -45.3897 -45.3897 -44.9046 -44.9046 -44.9039 -44.9039 -44.9023 -44.9023
   -44.9017 -44.9017  -7.0561  -6.9115  -6.0686  -5.8966  -4.4734  -4.3817
    -3.5780  -3.5298  -3.5185  -3.1139  -2.6412  -2.6150  -2.2611  -2.2542
    -2.1306  -2.0047  -1.7760  -1.7700  -1.6676  -1.5283  -0.8431  -0.6565
    -0.3847  -0.3624  -0.0576   0.1344   0.1572   0.1741   4.1900   4.5456
     4.6285   4.6668   4.7865   4.9397   5.2209   5.2924

          k = 0.0000 0.4063 0.1326 ( 30348 PWs)   bands (ev):

   -45.3897 -45.3897 -44.9046 -44.9046 -44.9039 -44.9039 -44.9023 -44.9023
   -44.9017 -44.9017  -7.0414  -6.9236  -6.0614  -5.9217  -4.4682  -4.3929
    -3.5727  -3.5340  -3.4176  -3.0271  -2.6399  -2.6045  -2.4123  -2.3578
    -2.2198  -1.9875  -1.9039  -1.6675  -1.5823  -1.4844  -0.7956  -0.6372
    -0.3813  -0.3358  -0.0703  -0.0315   0.1584   0.2925   4.2422   4.4789
     4.6337   4.6672   4.7735   4.9300   5.1395   5.3016

          k = 0.0000 0.4063 0.2652 ( 30307 PWs)   bands (ev):

   -45.3897 -45.3897 -44.9046 -44.9046 -44.9039 -44.9039 -44.9023 -44.9023
   -44.9017 -44.9017  -7.0033  -6.9578  -6.0326  -5.9788  -4.4495  -4.4201
    -3.5594  -3.5446  -3.1544  -2.8948  -2.6358  -2.5757  -2.5754  -2.5068
    -2.4163  -2.3012  -1.7192  -1.6621  -1.4262  -1.4255  -0.7219  -0.6542
    -0.3588  -0.3029  -0.1686  -0.1616   0.2503   0.3277   4.3097   4.3587
     4.5389   4.5716   5.0029   5.0248   5.3017   5.3732

          k = 0.2031 0.2031 0.0000 ( 30314 PWs)   bands (ev):

   -45.3898 -45.3897 -44.9049 -44.9049 -44.9031 -44.9031 -44.9031 -44.9031
   -44.9014 -44.9014  -7.2136  -6.9896  -5.7602  -5.4340  -4.8776  -4.7672
    -3.6940  -3.1594  -3.0757  -2.9054  -2.7551  -2.6732  -2.4773  -2.4381
    -2.3352  -2.1895  -1.9528  -1.7585  -1.5965  -1.3951  -0.6733  -0.5339
    -0.4342  -0.3676  -0.1421   0.1313   0.2261   0.3171   3.5949   4.4597
     4.7030   4.7157   4.8520   5.0016   5.0269   5.4251

          k = 0.2031 0.2031 0.1326 ( 30319 PWs)   bands (ev):

   -45.3897 -45.3897 -44.9049 -44.9049 -44.9031 -44.9031 -44.9031 -44.9031
   -44.9014 -44.9014  -7.1944  -7.0136  -5.7339  -5.4715  -4.8729  -4.7820
    -3.5919  -3.1553  -3.0900  -2.8968  -2.7615  -2.6346  -2.5741  -2.4596
    -2.3204  -2.1523  -1.9584  -1.7886  -1.5623  -1.5515  -0.6175  -0.5931
    -0.3592  -0.2620  -0.1419   0.0840   0.1848   0.3403   3.6540   4.3594
     4.5381   4.8685   4.9149   5.0193   5.1796   5.2643

          k = 0.2031 0.2031 0.2652 ( 30335 PWs)   bands (ev):

   -45.3897 -45.3897 -44.9049 -44.9049 -44.9031 -44.9031 -44.9031 -44.9031
   -44.9014 -44.9014  -7.1422  -7.0734  -5.6611  -5.5618  -4.8530  -4.8174
    -3.3213  -3.1458  -3.1126  -2.9560  -2.8411  -2.7923  -2.5252  -2.4780
    -2.2667  -1.9352  -1.9336  -1.8886  -1.8017  -1.6164  -0.6395  -0.6047
    -0.2432  -0.1689   0.0165   0.0599   0.1039   0.2592   3.8158   4.0476
     4.6914   4.8023   4.9831   5.1355   5.3063   5.3091

          k = 0.2031 0.4063 0.0000 ( 30330 PWs)   bands (ev):

   -45.3897 -45.3897 -44.9044 -44.9044 -44.9037 -44.9037 -44.9026 -44.9026
   -44.9019 -44.9019  -6.9455  -6.7955  -6.0596  -5.8700  -5.0641  -5.0219
    -3.4287  -3.1519  -3.0775  -3.0305  -2.8005  -2.6373  -2.3114  -1.9696
    -1.9591  -1.9247  -1.8165  -1.6839  -1.6510  -1.5135  -0.8376  -0.6972
    -0.5251  -0.4468  -0.1853   0.0779   0.2918   0.3265   4.0804   4.3705
     4.4439   4.6617   4.7706   4.9389   5.1172   5.2044

          k = 0.2031 0.4063 0.1326 ( 30336 PWs)   bands (ev):

   -45.3897 -45.3897 -44.9044 -44.9044 -44.9037 -44.9037 -44.9026 -44.9026
   -44.9019 -44.9019  -6.9305  -6.8083  -6.0489  -5.8950  -5.0636  -5.0288
    -3.3476  -3.1880  -3.0867  -2.9208  -2.7906  -2.6760  -2.2684  -2.1159
    -2.0049  -1.9417  -1.8106  -1.7504  -1.5845  -1.4844  -0.8237  -0.7172
    -0.5944  -0.4920  -0.0799   0.1137   0.2932   0.3221   4.1510   4.3885
     4.5388   4.6983   4.8452   4.8901   5.1392   5.2459

          k = 0.2031 0.4063 0.2652 ( 30331 PWs)   bands (ev):

   -45.3897 -45.3897 -44.9044 -44.9044 -44.9037 -44.9037 -44.9026 -44.9026
   -44.9019 -44.9019  -6.8913  -6.8442  -6.0128  -5.9537  -5.0579  -5.0441
    -3.2429  -3.2185  -2.9817  -2.8079  -2.7404  -2.6392  -2.5312  -2.2656
    -2.0485  -2.0232  -1.7607  -1.7087  -1.5019  -1.4523  -0.8745  -0.8531
    -0.5853  -0.5459   0.0915   0.1531   0.2757   0.3183   4.2633   4.3682
     4.6889   4.7651   4.9158   5.0090   5.1587   5.3359

          k = 0.4063 0.4063 0.0000 ( 30348 PWs)   bands (ev):

   -45.3897 -45.3897 -44.9038 -44.9038 -44.9032 -44.9032 -44.9031 -44.9031
   -44.9025 -44.9024  -6.6397  -6.4934  -6.1158  -5.8220  -5.7665  -5.6494
    -3.4048  -3.3774  -3.1724  -2.8721  -2.6404  -2.3561  -1.9623  -1.8343
    -1.8002  -1.6540  -1.5311  -1.5136  -1.4406  -1.4111  -0.9749  -0.7893
    -0.6928  -0.6228  -0.4840  -0.2281   0.5184   0.5325   4.0594   4.0807
     4.1110   4.2888   4.7447   4.9767   4.9795   5.1265

          k = 0.4063 0.4063 0.1326 ( 30312 PWs)   bands (ev):

   -45.3897 -45.3897 -44.9038 -44.9038 -44.9032 -44.9032 -44.9031 -44.9031
   -44.9025 -44.9024  -6.6253  -6.5065  -6.0917  -5.8551  -5.7590  -5.6658
    -3.4507  -3.4364  -3.0490  -2.7799  -2.5208  -2.2681  -1.9914  -1.9862
    -1.8177  -1.7787  -1.5665  -1.4861  -1.4408  -1.3976  -0.9679  -0.9112
    -0.8255  -0.7563  -0.2499  -0.1012   0.5219   0.5313   4.1546   4.2137
     4.2275   4.3923   4.7129   4.9325   4.9754   5.2003

          k = 0.4063 0.4063 0.2652 ( 30367 PWs)   bands (ev):

   -45.3897 -45.3897 -44.9038 -44.9038 -44.9032 -44.9032 -44.9031 -44.9031
   -44.9025 -44.9024  -6.5877  -6.5421  -6.0254  -5.9356  -5.7367  -5.7021
    -3.5082  -3.5033  -2.7675  -2.5333  -2.4305  -2.2256  -2.1805  -2.1312
    -1.8401  -1.7369  -1.7017  -1.5599  -1.4320  -1.4011  -1.1222  -1.1107
    -0.8148  -0.7779  -0.0424   0.0097   0.5260   0.5285   4.3385   4.3593
     4.5269   4.6246   4.6639   4.8156   5.2576   5.5825

     the Fermi energy is     1.3994 ev

!    total energy              =    -414.91465400 Ry
     estimated scf accuracy    <          6.8E-10 Ry
     smearing contrib. (-TS)   =       0.00000000 Ry
     internal energy E=F+TS    =    -414.91465400 Ry

     The total energy is F=E-TS. E is the sum of the following terms:
     one-electron contribution =     -76.07891423 Ry
     hartree contribution      =      41.66930377 Ry
     xc contribution           =     -69.47221467 Ry
     ewald contribution        =    -103.00081976 Ry
     one-center paw contrib.   =    -208.03200912 Ry

     convergence has been achieved in  10 iterations

     Forces acting on atoms (cartesian axes, Ry/au):

     atom    1 type  1   force =     0.00000000    0.00000000    0.00000000
     atom    2 type  1   force =     0.00000000    0.00000000   -0.00000000
     atom    3 type  1   force =     0.00000000    0.00000000    0.00000000
     atom    4 type  1   force =     0.00000000    0.00000000   -0.00000000
     atom    5 type  1   force =     0.00000000    0.00000000   -0.00000000
     atom    6 type  1   force =     0.00000000    0.00000000    0.00000000
     atom    7 type  2   force =     0.00000000    0.00000000   -0.00000000
     atom    8 type  2   force =     0.00000000    0.00000000   -0.00000000
     atom    9 type  2   force =    -0.00134017   -0.00134017    0.00000000
     atom   10 type  2   force =     0.00134017   -0.00134017   -0.00000000
     atom   11 type  2   force =    -0.00134017    0.00134017    0.00000000
     atom   12 type  2   force =     0.00134017    0.00134017    0.00000000
     atom   13 type  2   force =    -0.00134017   -0.00134017   -0.00000000
     atom   14 type  2   force =     0.00134017   -0.00134017   -0.00000000
     atom   15 type  2   force =    -0.00134017    0.00134017    0.00000000
     atom   16 type  2   force =     0.00134017    0.00134017   -0.00000000
     atom   17 type  3   force =    -0.00036587   -0.01189699    0.01373241
     atom   18 type  3   force =     0.00036587    0.01189699    0.01373241
     atom   19 type  3   force =    -0.01189699   -0.00036587   -0.01373241
     atom   20 type  3   force =    -0.01189699    0.00036587    0.01373241
     atom   21 type  3   force =     0.01189699   -0.00036587    0.01373241
     atom   22 type  3   force =     0.00036587   -0.01189699   -0.01373241
     atom   23 type  3   force =    -0.00036587    0.01189699   -0.01373241
     atom   24 type  3   force =     0.01189699    0.00036587   -0.01373241
     atom   25 type  3   force =     0.00036587    0.01189699   -0.01373241
     atom   26 type  3   force =    -0.00036587   -0.01189699   -0.01373241
     atom   27 type  3   force =     0.01189699    0.00036587    0.01373241
     atom   28 type  3   force =     0.01189699   -0.00036587   -0.01373241
     atom   29 type  3   force =    -0.01189699    0.00036587   -0.01373241
     atom   30 type  3   force =    -0.00036587    0.01189699    0.01373241
     atom   31 type  3   force =     0.00036587   -0.01189699    0.01373241
     atom   32 type  3   force =    -0.01189699   -0.00036587    0.01373241
     atom   33 type  3   force =     0.00000000    0.00000000    0.01111728
     atom   34 type  3   force =     0.00000000    0.00000000   -0.01111728
     atom   35 type  3   force =     0.00000000    0.00000000   -0.01111728
     atom   36 type  3   force =     0.00000000    0.00000000    0.01111728
     atom   37 type  3   force =    -0.00231748    0.00470515   -0.00000000
     atom   38 type  3   force =    -0.00470515   -0.00231748   -0.00000000
     atom   39 type  3   force =     0.00470515    0.00231748   -0.00000000
     atom   40 type  3   force =    -0.00231748   -0.00470515    0.00000000
     atom   41 type  3   force =     0.00231748    0.00470515    0.00000000
     atom   42 type  3   force =     0.00231748   -0.00470515   -0.00000000
     atom   43 type  3   force =     0.00470515   -0.00231748    0.00000000
     atom   44 type  3   force =    -0.00470515    0.00231748    0.00000000

     Total force =     0.077635     Total SCF correction =     0.000014


     Computing stress (Cartesian axis) and pressure

          total   stress  (Ry/bohr**3)                   (kbar)     P=      -25.23
  -0.00017069   0.00000000   0.00000000          -25.11        0.00        0.00
   0.00000000  -0.00017069   0.00000000            0.00      -25.11        0.00
   0.00000000   0.00000000  -0.00017320            0.00        0.00      -25.48

     Energy error            =      2.7E-02 Ry
     Gradient error          =      1.4E-02 Ry/Bohr
     Cell gradient error     =      2.5E+01 kbar

     number of scf cycles    =   3
     number of bfgs steps    =   2

     enthalpy           old  =    -414.8881178262 Ry
     enthalpy           new  =    -414.9146540032 Ry

     CASE: enthalpy          _new < enthalpy          _old

     new trust radius        =       0.1534947983 bohr
     new conv_thr            =       0.0000000014 Ry

     new unit-cell volume =   2811.56366 a.u.^3 (   416.63075 Ang^3 )
     density =      1.03535 g/cm^3

CELL_PARAMETERS (alat= 12.61135185)
   0.970543704   0.000000000   0.000000000
   0.000000000   0.970543704   0.000000000
   0.000000000   0.000000000   1.488102342

ATOMIC_POSITIONS (crystal)
Al            0.0000000000        0.0000000000        0.0000000000
Al            0.5000000000        0.5000000000        0.5000000000
Al            0.0000000000        0.5000000000        0.0000000000
Al            0.5000000000        0.0000000000       -0.0000000000
Al            0.5000000000        0.0000000000        0.5000000000
Al            0.0000000000        0.5000000000        0.5000000000
Li            0.0000000000        0.0000000000        0.5000000000
Li            0.5000000000        0.5000000000        0.0000000000
Li            0.2868363686        0.7868363686        0.2500000000
Li            0.2131636314        0.2868363686        0.2500000000
Li            0.7868363686        0.7131636314        0.2500000000
Li            0.7131636314        0.2131636314        0.2500000000
Li            0.2868363686        0.7868363686        0.7500000000
Li            0.2131636314        0.2868363686        0.7500000000
Li            0.7868363686        0.7131636314        0.7500000000
Li            0.7131636314        0.2131636314        0.7500000000
H             0.5435612608        0.8145220644        0.1218412299
H             0.4564387392        0.1854779356        0.1218412299
H             0.3145220644        0.0435612608        0.3781587701
H             0.8145220644        0.4564387392        0.1218412299
H             0.1854779356        0.5435612608        0.1218412299
H             0.9564387392        0.3145220644        0.3781587701
H             0.0435612608        0.6854779356        0.3781587701
H             0.6854779356        0.9564387392        0.3781587701
H             0.4564387392        0.1854779356        0.8781587701
H             0.5435612608        0.8145220644        0.8781587701
H             0.6854779356        0.9564387392        0.6218412299
H             0.1854779356        0.5435612608        0.8781587701
H             0.8145220644        0.4564387392        0.8781587701
H             0.0435612608        0.6854779356        0.6218412299
H             0.9564387392        0.3145220644        0.6218412299
H             0.3145220644        0.0435612608        0.6218412299
H             0.0000000000        0.0000000000        0.1734664059
H             0.5000000000        0.5000000000        0.3265335941
H             0.0000000000        0.0000000000        0.8265335941
H             0.5000000000        0.5000000000        0.6734664059
H             0.7513629985        0.0765060380        0.0000000000
H             0.9234939620        0.7513629985        0.0000000000
H             0.0765060380        0.2486370015        0.0000000000
H             0.2513629985        0.4234939620        0.5000000000
H             0.7486370015        0.5765060380        0.5000000000
H             0.2486370015        0.9234939620       -0.0000000000
H             0.5765060380        0.2513629985        0.5000000000
H             0.4234939620        0.7486370015        0.5000000000



     Writing config-only to output data dir ./Li5Al3H14.save/
     NEW-OLD atomic charge density approx. for the potential
     extrapolated charge   72.92822, renormalised to   76.00000

     total cpu time spent up to now is      128.5 secs

     Self-consistent Calculation

     iteration #  1     ecut=    70.00 Ry     beta= 0.70
     Davidson diagonalization with overlap
     c_bands:  1 eigenvalues not converged
     ethr =  1.00E-06,  avg # of iterations = 13.2

     total cpu time spent up to now is      135.7 secs

     total energy              =    -414.93548222 Ry
     estimated scf accuracy    <       0.00631627 Ry

     iteration #  2     ecut=    70.00 Ry     beta= 0.70
     Davidson diagonalization with overlap
     ethr =  8.31E-06,  avg # of iterations =  5.6

     total cpu time spent up to now is      140.0 secs

     total energy              =    -414.94763370 Ry
     estimated scf accuracy    <       0.00350228 Ry

     iteration #  3     ecut=    70.00 Ry     beta= 0.70
     Davidson diagonalization with overlap
     ethr =  4.61E-06,  avg # of iterations =  2.3

     total cpu time spent up to now is      142.5 secs

     total energy              =    -414.94753104 Ry
     estimated scf accuracy    <       0.00071906 Ry

     iteration #  4     ecut=    70.00 Ry     beta= 0.70
     Davidson diagonalization with overlap
     ethr =  9.46E-07,  avg # of iterations =  3.2

     total cpu time spent up to now is      145.4 secs

     total energy              =    -414.94765953 Ry
     estimated scf accuracy    <       0.00001440 Ry

     iteration #  5     ecut=    70.00 Ry     beta= 0.70
     Davidson diagonalization with overlap
     ethr =  1.89E-08,  avg # of iterations =  6.0

     total cpu time spent up to now is      150.0 secs

     total energy              =    -414.94768065 Ry
     estimated scf accuracy    <       0.00000244 Ry

     iteration #  6     ecut=    70.00 Ry     beta= 0.70
     Davidson diagonalization with overlap
     ethr =  3.21E-09,  avg # of iterations =  3.7

     total cpu time spent up to now is      153.3 secs

     total energy              =    -414.94768111 Ry
     estimated scf accuracy    <       0.00000219 Ry

     iteration #  7     ecut=    70.00 Ry     beta= 0.70
     Davidson diagonalization with overlap
     ethr =  2.88E-09,  avg # of iterations =  2.3

     total cpu time spent up to now is      156.1 secs

     total energy              =    -414.94768170 Ry
     estimated scf accuracy    <       0.00000013 Ry

     iteration #  8     ecut=    70.00 Ry     beta= 0.70
     Davidson diagonalization with overlap
     ethr =  1.72E-10,  avg # of iterations =  3.6

     total cpu time spent up to now is      159.2 secs

     total energy              =    -414.94768174 Ry
     estimated scf accuracy    <          2.1E-09 Ry

     iteration #  9     ecut=    70.00 Ry     beta= 0.70
     Davidson diagonalization with overlap
     ethr =  2.72E-12,  avg # of iterations =  6.2

     total cpu time spent up to now is      164.0 secs

     total energy              =    -414.94768174 Ry
     estimated scf accuracy    <          1.6E-09 Ry

     iteration # 10     ecut=    70.00 Ry     beta= 0.70
     Davidson diagonalization with overlap
     ethr =  2.08E-12,  avg # of iterations =  2.4

     total cpu time spent up to now is      166.8 secs

     End of self-consistent calculation

          k = 0.0000 0.0000 0.0000 ( 30351 PWs)   bands (ev):

   -45.0394 -45.0394 -44.5547 -44.5547 -44.5518 -44.5518 -44.5518 -44.5518
   -44.5493 -44.5493  -7.4062  -7.1562  -5.2801  -4.8575  -3.8965  -3.8252
    -3.7481  -3.7481  -3.6458  -3.6458  -3.5347  -2.3956  -2.3099  -2.1410
    -2.0672  -2.0672  -1.7012  -1.7012  -1.0468  -0.9131  -0.6742  -0.4674
    -0.4674  -0.2418   0.1622   0.2264   0.2264   0.6563   3.3765   4.4677
     4.9134   4.9134   5.1031   5.3441   5.6629   5.7758

          k = 0.0000 0.0000 0.1344 ( 30331 PWs)   bands (ev):

   -45.0394 -45.0394 -44.5547 -44.5547 -44.5518 -44.5518 -44.5518 -44.5518
   -44.5493 -44.5493  -7.3852  -7.1835  -5.2478  -4.9092  -3.9170  -3.7386
    -3.7386  -3.6707  -3.6557  -3.6557  -3.6008  -2.5014  -2.2758  -2.0524
    -2.0424  -2.0424  -1.7526  -1.7526  -1.1602  -1.1262  -0.4541  -0.3832
    -0.3832  -0.1326   0.1493   0.1728   0.1728   0.5859   3.4811   4.5030
     4.8726   4.8727   5.2255   5.2430   5.3786   5.4741

          k = 0.0000 0.0000 0.2688 ( 30364 PWs)   bands (ev):

   -45.0394 -45.0394 -44.5547 -44.5547 -44.5518 -44.5518 -44.5518 -44.5518
   -44.5493 -44.5493  -7.3276  -7.2509  -5.1571  -5.0297  -3.8604  -3.7381
    -3.7133  -3.7133  -3.6816  -3.6816  -3.3511  -2.9291  -1.9707  -1.9707
    -1.9598  -1.8633  -1.8633  -1.7752  -1.5400  -1.4407  -0.1875  -0.1875
    -0.0300   0.0136   0.0221   0.0221   0.1048   0.3523   3.7991   4.2640
     4.8906   4.8906   5.0963   5.0963   5.1049   5.3321

          k = 0.0000 0.2061 0.0000 ( 30327 PWs)   bands (ev):

   -45.0394 -45.0394 -44.5544 -44.5544 -44.5521 -44.5521 -44.5516 -44.5516
   -44.5496 -44.5496  -7.3039  -7.0630  -5.5591  -5.2148  -4.3092  -4.0744
    -3.7297  -3.6824  -3.5895  -2.8510  -2.7275  -2.5754  -2.2348  -2.2227
    -2.1050  -2.0657  -1.8658  -1.8086  -1.2354  -1.1067  -0.5612  -0.3602
    -0.3404  -0.2401   0.1337   0.2569   0.2735   0.5855   3.7120   4.6680
     4.8767   5.1108   5.2043   5.2413   5.4083   5.4701

          k = 0.0000 0.2061 0.1344 ( 30323 PWs)   bands (ev):

   -45.0394 -45.0394 -44.5544 -44.5544 -44.5521 -44.5521 -44.5516 -44.5516
   -44.5496 -44.5496  -7.2834  -7.0890  -5.5323  -5.2555  -4.3001  -4.1076
    -3.6735  -3.6162  -3.5976  -2.8394  -2.7637  -2.5065  -2.3938  -2.2018
    -2.1411  -1.9645  -1.8959  -1.8337  -1.2946  -1.2216  -0.4254  -0.3364
    -0.2365  -0.1540   0.1229   0.1597   0.2210   0.5786   3.7855   4.7086
     4.8029   4.8869   5.1030   5.2241   5.4056   5.5747

          k = 0.0000 0.2061 0.2688 ( 30317 PWs)   bands (ev):

   -45.0394 -45.0394 -44.5544 -44.5544 -44.5521 -44.5521 -44.5516 -44.5516
   -44.5496 -44.5496  -7.2276  -7.1536  -5.4572  -5.3524  -4.2583  -4.1837
    -3.6502  -3.6215  -3.3170  -2.9356  -2.8063  -2.7384  -2.2257  -2.1481
    -2.0799  -2.0510  -1.9798  -1.6674  -1.5844  -1.3320  -0.2412  -0.2214
    -0.0597  -0.0387   0.0217   0.0581   0.2109   0.4481   4.0011   4.3363
     4.7899   4.9076   5.0332   5.1893   5.5394   5.6125

          k = 0.0000 0.4121 0.0000 ( 30350 PWs)   bands (ev):

   -45.0394 -45.0394 -44.5537 -44.5537 -44.5528 -44.5528 -44.5510 -44.5510
   -44.5502 -44.5502  -7.0367  -6.8858  -5.9974  -5.8178  -4.3302  -4.2258
    -3.5360  -3.4885  -3.4522  -3.0300  -2.5202  -2.4954  -2.0895  -2.0804
    -1.9801  -1.8688  -1.6477  -1.6105  -1.4978  -1.3848  -0.6899  -0.5099
    -0.2344  -0.2172   0.1109   0.3201   0.3442   0.3605   4.5085   4.8045
     4.8488   4.9813   5.0264   5.2888   5.4744   5.5701

          k = 0.0000 0.4121 0.1344 ( 30348 PWs)   bands (ev):

   -45.0394 -45.0394 -44.5537 -44.5537 -44.5528 -44.5528 -44.5510 -44.5510
   -44.5502 -44.5502  -7.0214  -6.8984  -5.9903  -5.8444  -4.3246  -4.2387
    -3.5307  -3.4926  -3.3456  -2.9377  -2.5180  -2.4850  -2.2789  -2.1975
    -2.0743  -1.8458  -1.7444  -1.5011  -1.4187  -1.3324  -0.6379  -0.4839
    -0.2293  -0.1854   0.0996   0.1426   0.3366   0.4794   4.5586   4.7076
     4.8818   4.9031   5.0831   5.2556   5.4454   5.5856

          k = 0.0000 0.4121 0.2688 ( 30307 PWs)   bands (ev):

   -45.0394 -45.0394 -44.5537 -44.5537 -44.5528 -44.5528 -44.5510 -44.5510
   -44.5502 -44.5502  -6.9816  -6.9341  -5.9609  -5.9048  -4.3034  -4.2698
    -3.5177  -3.5031  -3.0674  -2.7900  -2.5343  -2.4572  -2.4530  -2.3742
    -2.2740  -2.1647  -1.5423  -1.4917  -1.2600  -1.2463  -0.5612  -0.4950
    -0.2006  -0.1376  -0.0146  -0.0047   0.4257   0.5096   4.5815   4.5906
     4.7939   4.8332   5.3220   5.3586   5.6055   5.6692

[...]

     iteration #  1     ecut=    70.00 Ry     beta= 0.70
     Davidson diagonalization with overlap
     c_bands:  3 eigenvalues not converged
     c_bands:  5 eigenvalues not converged
     c_bands:  4 eigenvalues not converged
     c_bands:  4 eigenvalues not converged
     c_bands:  5 eigenvalues not converged
     c_bands:  5 eigenvalues not converged
     c_bands:  1 eigenvalues not converged
     c_bands:  3 eigenvalues not converged
     c_bands:  4 eigenvalues not converged
     c_bands:  2 eigenvalues not converged
     ethr =  1.00E-06,  avg # of iterations = 27.6

     total cpu time spent up to now is      798.0 secs

     total energy              =    -414.84094014 Ry
     estimated scf accuracy    <       1.75966474 Ry

     iteration #  2     ecut=    70.00 Ry     beta= 0.70
     Davidson diagonalization with overlap
     ethr =  2.32E-03,  avg # of iterations =  2.0

     total cpu time spent up to now is      800.2 secs

     total energy              =    -414.97840203 Ry
     estimated scf accuracy    <       0.04855188 Ry

     iteration #  3     ecut=    70.00 Ry     beta= 0.70
     Davidson diagonalization with overlap
     ethr =  6.39E-05,  avg # of iterations =  3.1

     total cpu time spent up to now is      803.0 secs

     total energy              =    -415.00195791 Ry
     estimated scf accuracy    <       0.00377559 Ry

     iteration #  4     ecut=    70.00 Ry     beta= 0.70
     Davidson diagonalization with overlap
     ethr =  4.97E-06,  avg # of iterations =  9.2

     total cpu time spent up to now is      806.6 secs

     total energy              =    -415.00331059 Ry
     estimated scf accuracy    <       0.00058143 Ry

     iteration #  5     ecut=    70.00 Ry     beta= 0.70
     Davidson diagonalization with overlap
     ethr =  7.65E-07,  avg # of iterations =  5.3

     total cpu time spent up to now is      809.4 secs

     total energy              =    -415.00340292 Ry
     estimated scf accuracy    <       0.00012375 Ry

     iteration #  6     ecut=    70.00 Ry     beta= 0.70
     Davidson diagonalization with overlap
     ethr =  1.63E-07,  avg # of iterations =  2.3

     total cpu time spent up to now is      811.7 secs

     total energy              =    -415.00341531 Ry
     estimated scf accuracy    <       0.00000826 Ry

     iteration #  7     ecut=    70.00 Ry     beta= 0.70
     Davidson diagonalization with overlap
     ethr =  1.09E-08,  avg # of iterations =  5.2

     total cpu time spent up to now is      815.1 secs

     total energy              =    -415.00342259 Ry
     estimated scf accuracy    <       0.00000492 Ry

     iteration #  8     ecut=    70.00 Ry     beta= 0.70
     Davidson diagonalization with overlap
     ethr =  6.47E-09,  avg # of iterations =  2.0

     total cpu time spent up to now is      817.2 secs

     total energy              =    -415.00342316 Ry
     estimated scf accuracy    <       0.00000019 Ry

     iteration #  9     ecut=    70.00 Ry     beta= 0.70
     Davidson diagonalization with overlap
     ethr =  2.48E-10,  avg # of iterations =  5.2

     total cpu time spent up to now is      820.5 secs

     total energy              =    -415.00342329 Ry
     estimated scf accuracy    <       0.00000009 Ry

     iteration # 10     ecut=    70.00 Ry     beta= 0.70
     Davidson diagonalization with overlap
     ethr =  1.16E-10,  avg # of iterations =  2.0

     total cpu time spent up to now is      822.7 secs

     total energy              =    -415.00342331 Ry
     estimated scf accuracy    <          4.0E-09 Ry

     iteration # 11     ecut=    70.00 Ry     beta= 0.70
     Davidson diagonalization with overlap
     ethr =  5.20E-12,  avg # of iterations =  5.0

     total cpu time spent up to now is      826.0 secs

     total energy              =    -415.00342331 Ry
     estimated scf accuracy    <          2.9E-10 Ry

     iteration # 12     ecut=    70.00 Ry     beta= 0.70
     Davidson diagonalization with overlap
     ethr =  3.86E-13,  avg # of iterations =  3.7

     total cpu time spent up to now is      828.7 secs

     End of self-consistent calculation

          k = 0.0000 0.0000 0.0000 ( 24943 PWs)   bands (ev):

   -44.1909 -44.1909 -43.5252 -43.5252 -43.5210 -43.5210 -43.5210 -43.5210
   -43.5171 -43.5171  -7.1836  -6.8203  -4.8239  -4.1788  -3.6268  -3.5352
    -3.5352  -3.5179  -3.3919  -3.3919  -2.9066  -2.0708  -1.9294  -1.6342
    -1.6342  -1.5792  -1.0643  -1.0643  -0.3458  -0.2464  -0.1289  -0.1289
    -0.0550  -0.0375   0.3575   0.6744   0.6744   1.4452   4.1671   5.0772
     5.4488   5.4488   5.7559   6.0221   6.5277   6.7065

          k = 0.0000 0.0000 0.1431 ( 24963 PWs)   bands (ev):

   -44.1909 -44.1909 -43.5252 -43.5252 -43.5210 -43.5210 -43.5210 -43.5210
   -43.5171 -43.5171  -7.1544  -6.8621  -4.7790  -4.2681  -3.5966  -3.5221
    -3.5221  -3.4063  -3.4063  -3.3731  -3.0404  -1.9159  -1.9018  -1.7228
    -1.5986  -1.5986  -1.1566  -1.1566  -0.4971  -0.4415  -0.0091  -0.0091
     0.0733   0.1899   0.3554   0.6241   0.6241   1.3645   4.2893   5.1666
     5.4087   5.4087   5.9234   6.0443   6.2184   6.2507

          k = 0.0000 0.0000 0.2861 ( 24871 PWs)   bands (ev):

   -44.1909 -44.1909 -43.5252 -43.5252 -43.5210 -43.5210 -43.5210 -43.5210
   -43.5171 -43.5171  -7.0735  -6.9628  -4.6503  -4.4611  -3.4874  -3.4874
    -3.4764  -3.4431  -3.4431  -3.2766  -3.0023  -2.4799  -1.4945  -1.4945
    -1.4813  -1.3344  -1.3344  -1.3181  -0.9535  -0.8680   0.2374   0.2374
     0.3009   0.3431   0.4719   0.4719   0.6192   1.0859   4.6634   5.1574
     5.4503   5.4503   5.7329   5.7329   5.7721   5.9605

          k = 0.0000 0.2110 0.0000 ( 24924 PWs)   bands (ev):

   -44.1909 -44.1909 -43.5248 -43.5248 -43.5214 -43.5214 -43.5206 -43.5206
   -43.5175 -43.5174  -7.0727  -6.7217  -5.1868  -4.7028  -3.9276  -3.5264
    -3.5236  -3.4399  -3.3173  -2.5482  -2.3857  -2.2841  -1.8868  -1.8652
    -1.5533  -1.4810  -1.3207  -1.2065  -0.6809  -0.3212  -0.1039   0.0247
     0.0894   0.1030   0.4995   0.7593   0.7681   1.3685   4.5138   5.2675
     5.4621   5.7699   5.8242   6.0333   6.0981   6.2084

          k = 0.0000 0.2110 0.1431 ( 24899 PWs)   bands (ev):

   -44.1909 -44.1909 -43.5248 -43.5248 -43.5214 -43.5214 -43.5206 -43.5206
   -43.5175 -43.5174  -7.0441  -6.7615  -5.1519  -4.7643  -3.9152  -3.5821
    -3.4333  -3.3749  -3.3298  -2.5354  -2.4374  -2.1316  -1.9052  -1.8341
    -1.7985  -1.3995  -1.3664  -1.3003  -0.6213  -0.5550   0.0471   0.0791
     0.2025   0.2442   0.5062   0.6549   0.7082   1.3441   4.5797   5.3324
     5.4333   5.6012   5.7668   5.8375   6.1257   6.1339

          k = 0.0000 0.2110 0.2861 ( 24890 PWs)   bands (ev):

   -44.1909 -44.1909 -43.5248 -43.5248 -43.5214 -43.5214 -43.5206 -43.5206
   -43.5175 -43.5174  -6.9653  -6.8581  -5.0511  -4.9054  -3.8449  -3.7169
    -3.4039  -3.3638  -2.9933  -2.5526  -2.4971  -2.3711  -1.8633  -1.7529
    -1.6856  -1.6174  -1.4337  -1.0652  -0.9891  -0.6660   0.2123   0.2383
     0.3684   0.3912   0.4575   0.4777   0.8116   1.1638   4.7716   5.0943
     5.3530   5.5198   5.6814   5.8894   6.1297   6.1799

          k = 0.0000 0.4220 0.0000 ( 24874 PWs)   bands (ev):

   -44.1909 -44.1909 -43.5237 -43.5237 -43.5224 -43.5224 -43.5196 -43.5196
   -43.5184 -43.5184  -6.7735  -6.5527  -5.6759  -5.4196  -3.8488  -3.6629
    -3.2407  -3.2340  -3.1666  -2.7842  -2.3191  -2.3113  -1.6325  -1.6072
    -1.6056  -1.2066  -1.1930  -1.1741  -0.8400  -0.7660  -0.1518   0.0569
     0.1789   0.1994   0.7067   0.9101   0.9156   1.0808   5.3157   5.5344
     5.5439   5.7503   5.7713   5.8187   5.9771   6.1513

          k = 0.0000 0.4220 0.1431 ( 24892 PWs)   bands (ev):

   -44.1909 -44.1909 -43.5237 -43.5237 -43.5224 -43.5224 -43.5196 -43.5196
   -43.5184 -43.5184  -6.7509  -6.5699  -5.6720  -5.4630  -3.8386  -3.6836
    -3.2334  -3.1744  -3.0907  -2.6580  -2.3126  -2.2980  -1.9009  -1.7890
    -1.5592  -1.3941  -1.2561  -0.9841  -0.7360  -0.6987  -0.0858   0.0972
     0.2131   0.2240   0.6803   0.7103   0.9193   1.1725   5.3254   5.3327
     5.5363   5.5743   5.7953   5.9772   6.0418   6.1495

          k = 0.0000 0.4220 0.2861 ( 24920 PWs)   bands (ev):

   -44.1909 -44.1909 -43.5237 -43.5237 -43.5224 -43.5224 -43.5196 -43.5196
   -43.5184 -43.5184  -6.6918  -6.6212  -5.6383  -5.5574  -3.7977  -3.7361
    -3.2146  -3.1917  -2.7275  -2.4000  -2.2754  -2.2650  -2.1508  -2.0229
    -1.9325  -1.7676  -0.9976  -0.9361  -0.5616  -0.5274   0.0051   0.0858
     0.2664   0.3204   0.4547   0.4654   1.0699   1.1922   5.1737   5.2128
     5.4238   5.4443   5.9891   6.0737   6.2625   6.3211

          k = 0.2110 0.2110 0.0000 ( 24923 PWs)   bands (ev):

   -44.1909 -44.1909 -43.5244 -43.5244 -43.5210 -43.5210 -43.5210 -43.5210
   -43.5178 -43.5178  -6.9600  -6.6172  -5.3031  -4.8109  -4.4759  -4.2627
    -3.4260  -2.8410  -2.6868  -2.4882  -2.2783  -2.2411  -2.1002  -1.7668
    -1.6763  -1.3874  -1.3203  -0.9418  -0.9341  -0.4289  -0.1717   0.1157
     0.1837   0.2623   0.4336   0.7591   0.9225   1.2887   4.6665   5.2721
     5.6356   5.8186   5.8580   5.8736   6.1371   6.1700

          k = 0.2110 0.2110 0.1431 ( 24920 PWs)   bands (ev):

   -44.1909 -44.1909 -43.5244 -43.5244 -43.5210 -43.5210 -43.5210 -43.5210
   -43.5178 -43.5178  -6.9320  -6.6558  -5.2658  -4.8718  -4.4685  -4.2923
    -3.2848  -2.8386  -2.7180  -2.4615  -2.2808  -2.1446  -2.1100  -1.8184
    -1.7763  -1.4293  -1.3357  -0.9993  -0.8139  -0.6656  -0.0426  -0.0086
     0.2812   0.4291   0.4591   0.7216   0.8693   1.2907   4.7061   5.2905
     5.3749   5.7778   5.7930   6.0599   6.1770   6.3973

          k = 0.2110 0.2110 0.2861 ( 24906 PWs)   bands (ev):

   -44.1909 -44.1909 -43.5244 -43.5244 -43.5210 -43.5210 -43.5210 -43.5210
   -43.5178 -43.5178  -6.8546  -6.7498  -5.1609  -5.0128  -4.4314  -4.3622
    -2.9229  -2.8223  -2.7603  -2.4250  -2.3781  -2.2994  -2.0530  -2.0368
    -1.6289  -1.2771  -1.2550  -1.1515  -1.0113  -0.7996  -0.0990  -0.0058
     0.4014   0.4596   0.7045   0.7462   0.8434   1.1621   4.8090   4.9848
     5.5252   5.6726   5.8571   6.0667   6.2707   6.3191

          k = 0.2110 0.4220 0.0000 ( 24934 PWs)   bands (ev):

   -44.1909 -44.1909 -43.5234 -43.5233 -43.5221 -43.5220 -43.5200 -43.5200
   -43.5188 -43.5188  -6.6534  -6.4260  -5.6581  -5.3800  -4.5789  -4.4788
    -3.1338  -2.9350  -2.8134  -2.6855  -2.2684  -2.0009  -1.8741  -1.4355
    -1.3510  -1.1476  -1.1165  -1.0421  -0.7885  -0.7384  -0.2146   0.0277
     0.1757   0.2422   0.5885   0.9650   0.9809   1.0314   5.0858   5.3065
     5.5974   5.6030   5.7628   5.8059   6.0679   6.3158

          k = 0.2110 0.4220 0.1431 ( 24938 PWs)   bands (ev):

   -44.1909 -44.1909 -43.5234 -43.5233 -43.5221 -43.5220 -43.5200 -43.5200
   -43.5188 -43.5188  -6.6305  -6.4442  -5.6481  -5.4216  -4.5761  -4.4927
    -3.0284  -2.9741  -2.8208  -2.5393  -2.2559  -2.0770  -1.7383  -1.5118
    -1.4850  -1.3056  -1.1203  -1.0478  -0.7666  -0.7033  -0.1664  -0.0296
     0.1410   0.2166   0.7017   0.9047   0.9854   1.0992   5.1378   5.3031
     5.4940   5.6627   5.8361   5.8815   6.1774   6.3675

          k = 0.2110 0.4220 0.2861 ( 24926 PWs)   bands (ev):

   -44.1909 -44.1909 -43.5233 -43.5233 -43.5221 -43.5220 -43.5200 -43.5200
   -43.5188 -43.5188  -6.5704  -6.4978  -5.6031  -5.5157  -4.5587  -4.5252
    -3.0119  -2.9783  -2.5756  -2.2741  -2.1808  -2.1390  -1.9920  -1.7276
    -1.5402  -1.5318  -1.0227  -0.9615  -0.7082  -0.6131  -0.2689  -0.2364
     0.1590   0.2089   0.8576   0.8957   1.0139   1.1255   5.1805   5.3055
     5.4475   5.6509   5.9171   5.9657   6.2260   6.5005

          k = 0.4220 0.4220 0.0000 ( 24928 PWs)   bands (ev):

   -44.1909 -44.1909 -43.5223 -43.5223 -43.5211 -43.5211 -43.5210 -43.5210
   -43.5198 -43.5198  -6.3170  -6.1015  -5.7309  -5.3392  -5.2885  -5.1715
    -3.2454  -3.1919  -2.8431  -2.4575  -2.3162  -1.9334  -1.3540  -1.1646
    -0.9109  -0.8772  -0.8358  -0.7305  -0.7156  -0.6357  -0.3304  -0.0784
     0.0678   0.1479   0.3183   0.6327   1.1820   1.2075   5.0558   5.1494
     5.3162   5.5226   5.5844   5.6932   5.8061   5.9571

          k = 0.4220 0.4220 0.1431 ( 24933 PWs)   bands (ev):

   -44.1909 -44.1909 -43.5223 -43.5223 -43.5211 -43.5211 -43.5210 -43.5210
   -43.5198 -43.5198  -6.2954  -6.1199  -5.6966  -5.3418  -5.3301  -5.1991
    -3.3034  -3.2651  -2.6823  -2.3316  -2.1531  -1.8083  -1.3835  -1.2696
    -1.1933  -1.0032  -0.8446  -0.7201  -0.7044  -0.6174  -0.3362  -0.2503
     0.0004   0.0432   0.5633   0.7662   1.1984   1.2160   5.1153   5.2828
     5.3318   5.5838   5.6008   5.7050   5.8846   6.0840

          k = 0.4220 0.4220 0.2861 ( 24940 PWs)   bands (ev):

   -44.1909 -44.1909 -43.5223 -43.5223 -43.5211 -43.5211 -43.5210 -43.5210
   -43.5198 -43.5198  -6.2392  -6.1714  -5.6008  -5.4670  -5.3022  -5.2550
    -3.3722  -3.3576  -2.3016  -2.0034  -1.8513  -1.7362  -1.5916  -1.5621
    -1.3459  -1.2659  -0.8373  -0.7380  -0.7137  -0.6627  -0.4816  -0.4620
     0.0063   0.0307   0.8098   0.8825   1.2235   1.2284   5.1958   5.2437
     5.5721   5.5965   5.7029   5.8420   6.3865   6.4318

     the Fermi energy is     2.4876 ev

!    total energy              =    -415.00342331 Ry
     estimated scf accuracy    <          9.6E-11 Ry
     smearing contrib. (-TS)   =       0.00000000 Ry
     internal energy E=F+TS    =    -415.00342331 Ry

     The total energy is F=E-TS. E is the sum of the following terms:
     one-electron contribution =     -66.01229819 Ry
     hartree contribution      =      39.20123506 Ry
     xc contribution           =     -70.07879066 Ry
     ewald contribution        =    -110.07407254 Ry
     one-center paw contrib.   =    -208.03949698 Ry

     convergence has been achieved in  12 iterations

     Forces acting on atoms (cartesian axes, Ry/au):

     atom    1 type  1   force =     0.00000000    0.00000000    0.00000000
     atom    2 type  1   force =     0.00000000    0.00000000    0.00000000
     atom    3 type  1   force =     0.00000000    0.00000000    0.00000000
     atom    4 type  1   force =     0.00000000    0.00000000    0.00000000
     atom    5 type  1   force =     0.00000000    0.00000000    0.00000000
     atom    6 type  1   force =     0.00000000    0.00000000   -0.00000000
     atom    7 type  2   force =     0.00000000    0.00000000    0.00000000
     atom    8 type  2   force =     0.00000000    0.00000000    0.00000000
     atom    9 type  2   force =    -0.00014103   -0.00014103    0.00000000
     atom   10 type  2   force =     0.00014103   -0.00014103    0.00000000
     atom   11 type  2   force =    -0.00014103    0.00014103    0.00000000
     atom   12 type  2   force =     0.00014103    0.00014103    0.00000000
     atom   13 type  2   force =    -0.00014103   -0.00014103    0.00000000
     atom   14 type  2   force =     0.00014103   -0.00014103    0.00000000
     atom   15 type  2   force =    -0.00014103    0.00014103    0.00000000
     atom   16 type  2   force =     0.00014103    0.00014103    0.00000000
     atom   17 type  3   force =    -0.00013975   -0.00018947   -0.00028314
     atom   18 type  3   force =     0.00013975    0.00018947   -0.00028314
     atom   19 type  3   force =    -0.00018947   -0.00013975    0.00028314
     atom   20 type  3   force =    -0.00018947    0.00013975   -0.00028314
     atom   21 type  3   force =     0.00018947   -0.00013975   -0.00028314
     atom   22 type  3   force =     0.00013975   -0.00018947    0.00028314
     atom   23 type  3   force =    -0.00013975    0.00018947    0.00028314
     atom   24 type  3   force =     0.00018947    0.00013975    0.00028314
     atom   25 type  3   force =     0.00013975    0.00018947    0.00028314
     atom   26 type  3   force =    -0.00013975   -0.00018947    0.00028314
     atom   27 type  3   force =     0.00018947    0.00013975   -0.00028314
     atom   28 type  3   force =     0.00018947   -0.00013975    0.00028314
     atom   29 type  3   force =    -0.00018947    0.00013975    0.00028314
     atom   30 type  3   force =    -0.00013975    0.00018947   -0.00028314
     atom   31 type  3   force =     0.00013975   -0.00018947   -0.00028314
     atom   32 type  3   force =    -0.00018947   -0.00013975   -0.00028314
     atom   33 type  3   force =     0.00000000    0.00000000    0.00048248
     atom   34 type  3   force =     0.00000000    0.00000000   -0.00048248
     atom   35 type  3   force =     0.00000000    0.00000000   -0.00048248
     atom   36 type  3   force =     0.00000000    0.00000000    0.00048248
     atom   37 type  3   force =     0.00000131   -0.00014274    0.00000000
     atom   38 type  3   force =     0.00014274    0.00000131   -0.00000000
     atom   39 type  3   force =    -0.00014274   -0.00000131   -0.00000000
     atom   40 type  3   force =     0.00000131    0.00014274   -0.00000000
     atom   41 type  3   force =    -0.00000131   -0.00014274    0.00000000
     atom   42 type  3   force =    -0.00000131    0.00014274    0.00000000
     atom   43 type  3   force =    -0.00014274    0.00000131   -0.00000000
     atom   44 type  3   force =     0.00014274   -0.00000131   -0.00000000

     Total force =     0.001893     Total SCF correction =     0.000006


     Computing stress (Cartesian axis) and pressure

          total   stress  (Ry/bohr**3)                   (kbar)     P=       -0.04
  -0.00000113   0.00000000   0.00000000           -0.17        0.00        0.00
   0.00000000  -0.00000113   0.00000000            0.00       -0.17        0.00
   0.00000000   0.00000000   0.00000138            0.00        0.00        0.20


     Writing all to output data dir ./Li5Al3H14.save/
 
     init_run     :      4.56s CPU      4.74s WALL (       2 calls)
     electrons    :    656.31s CPU    672.03s WALL (      23 calls)
     update_pot   :     20.08s CPU     20.25s WALL (      21 calls)
     forces       :     22.00s CPU     22.62s WALL (      23 calls)
     stress       :    100.48s CPU    101.85s WALL (      23 calls)

     Called by init_run:
     wfcinit      :      2.88s CPU      2.96s WALL (       2 calls)
     potinit      :      0.93s CPU      0.95s WALL (       2 calls)
     hinit0       :      0.59s CPU      0.61s WALL (       2 calls)

     Called by electrons:
     c_bands      :    538.65s CPU    548.86s WALL (     189 calls)
     sum_band     :     59.62s CPU     61.80s WALL (     189 calls)
     v_of_rho     :      1.65s CPU      1.67s WALL (     205 calls)
     newd         :      4.91s CPU      6.07s WALL (     205 calls)
     PAW_pot      :     63.40s CPU     64.13s WALL (     226 calls)
     mix_rho      :      0.48s CPU      0.50s WALL (     189 calls)

     Called by c_bands:
     init_us_2    :     17.88s CPU     18.29s WALL (    8046 calls)
     init_us_2:cp :     17.81s CPU     18.26s WALL (    8046 calls)
     cegterg      :    484.35s CPU    492.16s WALL (    3411 calls)

     Called by *egterg:
     cdiaghg      :     45.13s CPU     45.47s WALL (   17857 calls)
     h_psi        :    302.92s CPU    308.81s WALL (   18406 calls)
     s_psi        :     48.55s CPU     49.06s WALL (   18406 calls)
     g_psi        :      3.20s CPU      3.23s WALL (   14959 calls)

     Called by h_psi:
     h_psi:calbec :     49.25s CPU     49.80s WALL (   18406 calls)
     vloc_psi     :    202.87s CPU    207.80s WALL (   18406 calls)
     add_vuspsi   :     48.21s CPU     48.56s WALL (   18406 calls)

     General routines
     calbec       :     72.81s CPU     73.60s WALL (   24256 calls)
     fft          :      1.21s CPU      1.23s WALL (    2858 calls)
     ffts         :      0.07s CPU      0.07s WALL (     189 calls)
     fftw         :    208.57s CPU    213.45s WALL ( 1201302 calls)
 
     Parallel routines
 
     PWSCF        :  13m33.66s CPU  13m54.83s WALL

 
   This run was terminated on:  19:50:33   6Dec2023            

=------------------------------------------------------------------------------=
   JOB DONE.
=------------------------------------------------------------------------------=
