
     Program PWSCF v.7.1 starts on  8Dec2023 at 20:47:17 

     This program is part of the open-source Quantum ESPRESSO suite
     for quantum simulation of materials; please cite
         "P. Giannozzi et al., J. Phys.:Condens. Matter 21 395502 (2009);
         "P. Giannozzi et al., J. Phys.:Condens. Matter 29 465901 (2017);
         "P. Giannozzi et al., J. Chem. Phys. 152 154105 (2020);
          URL http://www.quantum-espresso.org", 
     in publications or presentations arising from this work. More details at
     http://www.quantum-espresso.org/quote

     Parallel version (MPI & OpenMP), running on      28 processor cores
     Number of MPI processes:                28
     Threads/MPI process:                     1

     MPI processes distributed on     1 nodes
     120909 MiB available memory on the printing compute node when the environment starts
 
     Reading input from Li5B3H14_sod.in

     Current dimensions of program PWSCF are:
     Max number of different atomic species (ntypx) = 10
     Max number of k-points (npk) =  40000
     Max angular momentum in pseudopotentials (lmaxx) =  4

     File ./Li5B3H14_sod.update deleted, as requested

     File ./Li5B3H14_sod.bfgs deleted, as requested

     IMPORTANT: XC functional enforced from input :
     Exchange-correlation= PBE
                           (   1   4   3   4   0   0   0)
     Any further DFT definition will be discarded
     Please, verify this is what you really want

     Message from routine setup:
     using ibrav=0 with symmetry is DISCOURAGED, use correct ibrav instead
 
     R & G space division:  proc/nbgrp/npool/nimage =      28
     Subspace diagonalization in iterative solution of the eigenvalue problem:
     a serial algorithm will be used

 
     Parallelization info
     --------------------
     sticks:   dense  smooth     PW     G-vecs:    dense   smooth      PW
     Min         271     271     71                27189    27189    3681
     Max         272     272     72                27198    27198    3690
     Sum        7597    7597   2009               761339   761339  103189
 
     Using Slab Decomposition
 


     bravais-lattice index     =            0
     lattice parameter (alat)  =      12.6114  a.u.
     unit-cell volume          =    3067.3055 (a.u.)^3
     number of atoms/cell      =           44
     number of atomic types    =            3
     number of electrons       =        76.00
     number of Kohn-Sham states=           46
     kinetic-energy cutoff     =     150.0000  Ry
     charge density cutoff     =     600.0000  Ry
     scf convergence threshold =      1.0E-08
     mixing beta               =       0.7000
     number of iterations used =            8  plain     mixing
     energy convergence thresh.=      1.0E-04
     force convergence thresh. =      1.0E-03
     press convergence thresh. =      5.0E-01
     Exchange-correlation= PBE
                           (   1   4   3   4   0   0   0)
     nstep                     =           50


     celldm(1)=  12.611352  celldm(2)=   0.000000  celldm(3)=   0.000000
     celldm(4)=   0.000000  celldm(5)=   0.000000  celldm(6)=   0.000000

     crystal axes: (cart. coord. in units of alat)
               a(1) = (   1.000000   0.000000   0.000000 )  
               a(2) = (   0.000000   1.000000   0.000000 )  
               a(3) = (   0.000000   0.000000   1.529228 )  

     reciprocal axes: (cart. coord. in units 2 pi/alat)
               b(1) = (  1.000000  0.000000  0.000000 )  
               b(2) = (  0.000000  1.000000  0.000000 )  
               b(3) = (  0.000000  0.000000  0.653925 )  


     PseudoPot. # 1 for B  read from file:
     /scratch/antwerpen/209/vsc20922/pseudos/b_pbe_v1.4.uspp.F.UPF
     MD5 check sum: cc6de2960df11db49a60e589f9ebb39b
     Pseudo is Ultrasoft + core correction, Zval =  3.0
     Generated by new atomic code, or converted to UPF format
     Using radial grid of  781 points,  4 beta functions with: 
                l(1) =   0
                l(2) =   0
                l(3) =   1
                l(4) =   1
     Q(r) pseudized with  8 coefficients,  rinner =    1.100   1.100   1.100


     PseudoPot. # 2 for Li read from file:
     /scratch/antwerpen/209/vsc20922/pseudos/li_pbe_v1.4.uspp.F.UPF
     MD5 check sum: e912e257baa3777c20ea3d68f190483c
     Pseudo is Ultrasoft, Zval =  3.0
     Generated by new atomic code, or converted to UPF format
     Using radial grid of  751 points,  5 beta functions with: 
                l(1) =   0
                l(2) =   0
                l(3) =   0
                l(4) =   1
                l(5) =   1
     Q(r) pseudized with 10 coefficients,  rinner =    1.150   1.150   1.150


     PseudoPot. # 3 for H  read from file:
     /scratch/antwerpen/209/vsc20922/pseudos/H.pbe-rrkjus_psl.1.0.0.UPF
     MD5 check sum: f52b6d4d1c606e5624b1dc7b2218f220
     Pseudo is Ultrasoft, Zval =  1.0
     Generated using "atomic" code by A. Dal Corso  v.5.1
     Using radial grid of  929 points,  2 beta functions with: 
                l(1) =   0
                l(2) =   0
     Q(r) pseudized with 0 coefficients 


     atomic species   valence    mass     pseudopotential
        B              3.00    10.81350     B ( 1.00)
        Li             3.00     6.96750     Li( 1.00)
        H              1.00     1.00750     H ( 1.00)

     16 Sym. Ops., with inversion, found ( 8 have fractional translation)



   Cartesian axes

     site n.     atom                  positions (alat units)
         1           B   tau(   1) = (   0.0000000   0.5000000   0.0000000  )
         2           B   tau(   2) = (   0.5000000   0.0000000   0.7646138  )
         3           B   tau(   3) = (   0.0000000   0.5000000   0.7646138  )
         4           B   tau(   4) = (   0.5000000   0.0000000   0.0000000  )
         5           B   tau(   5) = (   0.0000000   0.0000000   0.0000000  )
         6           B   tau(   6) = (   0.5000000   0.5000000   0.7646138  )
         7           Li  tau(   7) = (   0.2126529   0.2873471   0.3823069  )
         8           Li  tau(   8) = (   0.2873471   0.7873471   0.3823069  )
         9           Li  tau(   9) = (   0.2873471   0.7873471   1.1469206  )
        10           Li  tau(  10) = (   0.2126529   0.2873471   1.1469206  )
        11           Li  tau(  11) = (   0.7873471   0.7126529   0.3823069  )
        12           Li  tau(  12) = (   0.7873471   0.7126529   1.1469206  )
        13           Li  tau(  13) = (   0.7126529   0.2126529   0.3823069  )
        14           Li  tau(  14) = (   0.7126529   0.2126529   1.1469206  )
        15           Li  tau(  15) = (   0.0000000   0.0000000   0.7646138  )
        16           Li  tau(  16) = (   0.5000000   0.5000000   0.0000000  )
        17           H   tau(  17) = (   0.0437980   0.6799493   0.5849086  )
        18           H   tau(  18) = (   0.4562020   0.1799493   0.1797052  )
        19           H   tau(  19) = (   0.8200507   0.4562020   0.1797052  )
        20           H   tau(  20) = (   0.4562020   0.1799493   1.3495223  )
        21           H   tau(  21) = (   0.8200507   0.4562020   1.3495223  )
        22           H   tau(  22) = (   0.9562020   0.3200507   0.5849086  )
        23           H   tau(  23) = (   0.6799493   0.9562020   0.5849086  )
        24           H   tau(  24) = (   0.9562020   0.3200507   0.9443189  )
        25           H   tau(  25) = (   0.6799493   0.9562020   0.9443189  )
        26           H   tau(  26) = (   0.3200507   0.0437980   0.5849086  )
        27           H   tau(  27) = (   0.0437980   0.6799493   0.9443189  )
        28           H   tau(  28) = (   0.3200507   0.0437980   0.9443189  )
        29           H   tau(  29) = (   0.5437980   0.8200507   0.1797052  )
        30           H   tau(  30) = (   0.1799493   0.5437980   0.1797052  )
        31           H   tau(  31) = (   0.5437980   0.8200507   1.3495223  )
        32           H   tau(  32) = (   0.1799493   0.5437980   1.3495223  )
        33           H   tau(  33) = (   0.0751217   0.2476266   0.0000000  )
        34           H   tau(  34) = (   0.4248783   0.7476266   0.7646138  )
        35           H   tau(  35) = (   0.2523734   0.4248783   0.7646138  )
        36           H   tau(  36) = (   0.9248783   0.7523734   0.0000000  )
        37           H   tau(  37) = (   0.2476266   0.9248783   0.0000000  )
        38           H   tau(  38) = (   0.7523734   0.0751217   0.0000000  )
        39           H   tau(  39) = (   0.5751217   0.2523734   0.7646138  )
        40           H   tau(  40) = (   0.7476266   0.5751217   0.7646138  )
        41           H   tau(  41) = (   0.0000000   0.0000000   0.2607407  )
        42           H   tau(  42) = (   0.5000000   0.5000000   0.5038731  )
        43           H   tau(  43) = (   0.5000000   0.5000000   1.0253544  )
        44           H   tau(  44) = (   0.0000000   0.0000000   1.2684868  )

     number of k points=    40  Marzari-Vanderbilt smearing, width (Ry)=  0.0050
                       cart. coord. in units 2pi/alat
        k(    1) = (   0.0000000   0.0000000   0.0000000), wk =   0.0058309
        k(    2) = (   0.0000000   0.0000000   0.0934178), wk =   0.0116618
        k(    3) = (   0.0000000   0.0000000   0.1868357), wk =   0.0116618
        k(    4) = (   0.0000000   0.0000000   0.2802535), wk =   0.0116618
        k(    5) = (   0.0000000   0.1428571   0.0000000), wk =   0.0233236
        k(    6) = (   0.0000000   0.1428571   0.0934178), wk =   0.0466472
        k(    7) = (   0.0000000   0.1428571   0.1868357), wk =   0.0466472
        k(    8) = (   0.0000000   0.1428571   0.2802535), wk =   0.0466472
        k(    9) = (   0.0000000   0.2857143   0.0000000), wk =   0.0233236
        k(   10) = (   0.0000000   0.2857143   0.0934178), wk =   0.0466472
        k(   11) = (   0.0000000   0.2857143   0.1868357), wk =   0.0466472
        k(   12) = (   0.0000000   0.2857143   0.2802535), wk =   0.0466472
        k(   13) = (   0.0000000   0.4285714   0.0000000), wk =   0.0233236
        k(   14) = (   0.0000000   0.4285714   0.0934178), wk =   0.0466472
        k(   15) = (   0.0000000   0.4285714   0.1868357), wk =   0.0466472
        k(   16) = (   0.0000000   0.4285714   0.2802535), wk =   0.0466472
        k(   17) = (   0.1428571   0.1428571   0.0000000), wk =   0.0233236
        k(   18) = (   0.1428571   0.1428571   0.0934178), wk =   0.0466472
        k(   19) = (   0.1428571   0.1428571   0.1868357), wk =   0.0466472
        k(   20) = (   0.1428571   0.1428571   0.2802535), wk =   0.0466472
        k(   21) = (   0.1428571   0.2857143   0.0000000), wk =   0.0466472
        k(   22) = (   0.1428571   0.2857143   0.0934178), wk =   0.0932945
        k(   23) = (   0.1428571   0.2857143   0.1868357), wk =   0.0932945
        k(   24) = (   0.1428571   0.2857143   0.2802535), wk =   0.0932945
        k(   25) = (   0.1428571   0.4285714   0.0000000), wk =   0.0466472
        k(   26) = (   0.1428571   0.4285714   0.0934178), wk =   0.0932945
        k(   27) = (   0.1428571   0.4285714   0.1868357), wk =   0.0932945
        k(   28) = (   0.1428571   0.4285714   0.2802535), wk =   0.0932945
        k(   29) = (   0.2857143   0.2857143   0.0000000), wk =   0.0233236
        k(   30) = (   0.2857143   0.2857143   0.0934178), wk =   0.0466472
        k(   31) = (   0.2857143   0.2857143   0.1868357), wk =   0.0466472
        k(   32) = (   0.2857143   0.2857143   0.2802535), wk =   0.0466472
        k(   33) = (   0.2857143   0.4285714   0.0000000), wk =   0.0466472
        k(   34) = (   0.2857143   0.4285714   0.0934178), wk =   0.0932945
        k(   35) = (   0.2857143   0.4285714   0.1868357), wk =   0.0932945
        k(   36) = (   0.2857143   0.4285714   0.2802535), wk =   0.0932945
        k(   37) = (   0.4285714   0.4285714   0.0000000), wk =   0.0233236
        k(   38) = (   0.4285714   0.4285714   0.0934178), wk =   0.0466472
        k(   39) = (   0.4285714   0.4285714   0.1868357), wk =   0.0466472
        k(   40) = (   0.4285714   0.4285714   0.2802535), wk =   0.0466472

     Dense  grid:   761339 G-vectors     FFT dimensions: ( 100, 100, 160)

     Estimated max dynamical RAM per process >     185.82 MB

     Estimated total dynamical RAM >       5.08 GB

     Initial potential from superposition of free atoms

     starting charge      71.4906, renormalised to      76.0000
     Starting wfcs are  102 randomized atomic wfcs

     total cpu time spent up to now is       14.1 secs

     Self-consistent Calculation

     iteration #  1     ecut=   150.00 Ry     beta= 0.70
     Davidson diagonalization with overlap
     ethr =  1.00E-02,  avg # of iterations =  2.0

     total cpu time spent up to now is       28.8 secs

     total energy              =    -213.94423223 Ry
     estimated scf accuracy    <       1.49331456 Ry

     iteration #  2     ecut=   150.00 Ry     beta= 0.70
     Davidson diagonalization with overlap
     ethr =  1.96E-03,  avg # of iterations =  4.0

     total cpu time spent up to now is       47.9 secs

     total energy              =    -214.14104431 Ry
     estimated scf accuracy    <       0.76727231 Ry

     iteration #  3     ecut=   150.00 Ry     beta= 0.70
     Davidson diagonalization with overlap
     ethr =  1.01E-03,  avg # of iterations =  2.0

     total cpu time spent up to now is       63.3 secs

     total energy              =    -214.35947331 Ry
     estimated scf accuracy    <       0.05775058 Ry

     iteration #  4     ecut=   150.00 Ry     beta= 0.70
     Davidson diagonalization with overlap
     ethr =  7.60E-05,  avg # of iterations =  4.0

     total cpu time spent up to now is       90.7 secs

     total energy              =    -214.37880190 Ry
     estimated scf accuracy    <       0.01718171 Ry

     iteration #  5     ecut=   150.00 Ry     beta= 0.70
     Davidson diagonalization with overlap
     ethr =  2.26E-05,  avg # of iterations =  3.5

     total cpu time spent up to now is      110.6 secs

     total energy              =    -214.38146047 Ry
     estimated scf accuracy    <       0.00194520 Ry

     iteration #  6     ecut=   150.00 Ry     beta= 0.70
     Davidson diagonalization with overlap
     c_bands:  1 eigenvalues not converged
     c_bands:  2 eigenvalues not converged
     c_bands:  1 eigenvalues not converged
     c_bands:  1 eigenvalues not converged
     c_bands:  1 eigenvalues not converged
     ethr =  2.56E-06,  avg # of iterations = 10.5

     total cpu time spent up to now is      138.9 secs

     total energy              =    -214.38258072 Ry
     estimated scf accuracy    <       0.00062857 Ry

     iteration #  7     ecut=   150.00 Ry     beta= 0.70
     Davidson diagonalization with overlap
     ethr =  8.27E-07,  avg # of iterations =  2.9

     total cpu time spent up to now is      154.6 secs

     total energy              =    -214.38259915 Ry
     estimated scf accuracy    <       0.00014198 Ry

     iteration #  8     ecut=   150.00 Ry     beta= 0.70
     Davidson diagonalization with overlap
     ethr =  1.87E-07,  avg # of iterations =  4.0

     total cpu time spent up to now is      174.5 secs

     total energy              =    -214.38266000 Ry
     estimated scf accuracy    <       0.00001693 Ry

     iteration #  9     ecut=   150.00 Ry     beta= 0.70
     Davidson diagonalization with overlap
     ethr =  2.23E-08,  avg # of iterations =  3.9

     total cpu time spent up to now is      192.5 secs

     total energy              =    -214.38266429 Ry
     estimated scf accuracy    <       0.00000170 Ry

     iteration # 10     ecut=   150.00 Ry     beta= 0.70
     Davidson diagonalization with overlap
     ethr =  2.23E-09,  avg # of iterations =  4.5

     total cpu time spent up to now is      214.2 secs

     total energy              =    -214.38266526 Ry
     estimated scf accuracy    <       0.00000004 Ry

     iteration # 11     ecut=   150.00 Ry     beta= 0.70
     Davidson diagonalization with overlap
     c_bands:  1 eigenvalues not converged
     ethr =  4.64E-11,  avg # of iterations =  6.7

     total cpu time spent up to now is      244.2 secs

     total energy              =    -214.38266529 Ry
     estimated scf accuracy    <       0.00000006 Ry

     iteration # 12     ecut=   150.00 Ry     beta= 0.70
     Davidson diagonalization with overlap
     ethr =  4.64E-11,  avg # of iterations =  2.9

     total cpu time spent up to now is      261.3 secs

     End of self-consistent calculation

          k = 0.0000 0.0000 0.0000 ( 95119 PWs)   bands (ev):

   -46.8346 -46.8346 -46.2284 -46.2284 -46.2266 -46.2266 -46.2266 -46.2266
   -46.2249 -46.2249  -8.6064  -8.4240  -7.1871  -6.9636  -6.0284  -5.8716
    -4.8681  -4.5832  -4.5832  -4.4774  -4.4774  -3.6842  -3.6482  -3.5059
    -3.4576  -3.4576  -3.2046  -3.2046  -2.7445  -2.6623  -1.7293  -1.2244
    -1.2244  -0.5246  -0.5246  -0.4396  -0.3621   0.1802   0.4928   1.9804
     2.5966   2.6395   2.6398   2.6520   2.7028   2.7972

          k = 0.0000 0.0000 0.0934 ( 95167 PWs)   bands (ev):

   -46.8346 -46.8346 -46.2284 -46.2284 -46.2266 -46.2266 -46.2266 -46.2266
   -46.2249 -46.2249  -8.5983  -8.4340  -7.1774  -6.9762  -6.0228  -5.8815
    -4.8214  -4.5780  -4.5780  -4.4827  -4.4827  -3.7282  -3.6418  -3.4911
    -3.4477  -3.4477  -3.2208  -3.2208  -2.7956  -2.7278  -1.6080  -1.1868
    -1.1868  -0.5570  -0.5570  -0.3806  -0.3158   0.1652   0.3890   1.6855
     2.6431   2.6434   2.7000   2.7732   2.8530   2.8658

          k = 0.0000 0.0000 0.1868 ( 95251 PWs)   bands (ev):

   -46.8346 -46.8346 -46.2284 -46.2284 -46.2266 -46.2266 -46.2266 -46.2266
   -46.2249 -46.2249  -8.5749  -8.4615  -7.1493  -7.0106  -6.0057  -5.9079
    -4.6869  -4.5635  -4.5635  -4.4975  -4.4975  -3.9516  -3.5202  -3.4191
    -3.4191  -3.4067  -3.2636  -3.2636  -2.9277  -2.8974  -1.3071  -1.0837
    -1.0837  -0.6488  -0.6488  -0.3152  -0.2029   0.1190   0.2382   1.2231
     2.6527   2.6527   2.6919   2.6919   3.0172   3.0491

          k = 0.0000 0.0000 0.2803 ( 95200 PWs)   bands (ev):

   -46.8346 -46.8346 -46.2284 -46.2284 -46.2266 -46.2266 -46.2266 -46.2266
   -46.2249 -46.2249  -8.5401  -8.4996  -7.1072  -7.0578  -5.9780  -5.9431
    -4.5424  -4.5424  -4.5188  -4.5188  -4.4799  -4.2232  -3.3744  -3.3744
    -3.3365  -3.3193  -3.3193  -3.2670  -3.1167  -3.0977  -0.9395  -0.9395
    -0.9253  -0.7845  -0.7845  -0.5432  -0.0728   0.0391   0.4042   0.7774
     2.6659   2.6659   2.6798   2.6799   3.2829   3.3097

          k = 0.0000 0.1429 0.0000 ( 95143 PWs)   bands (ev):

   -46.8346 -46.8346 -46.2283 -46.2283 -46.2267 -46.2267 -46.2265 -46.2265
   -46.2250 -46.2250  -8.5631  -8.3835  -7.2490  -7.0311  -6.1567  -6.0258
    -4.8249  -4.5478  -4.4554  -4.2978  -4.2186  -3.7512  -3.6196  -3.5159
    -3.4865  -3.4372  -3.2649  -3.2272  -2.8009  -2.7119  -1.6528  -1.2093
    -1.1867  -0.5406  -0.5239  -0.4515  -0.3857   0.0033   0.5140   1.8763
     2.1600   2.5501   2.6574   2.6657   2.6945   2.7860

          k = 0.0000 0.1429 0.0934 ( 95172 PWs)   bands (ev):

   -46.8346 -46.8346 -46.2283 -46.2283 -46.2267 -46.2267 -46.2265 -46.2265
   -46.2250 -46.2250  -8.5550  -8.3934  -7.2394  -7.0434  -6.1519  -6.0338
    -4.7789  -4.5428  -4.4592  -4.2946  -4.2231  -3.7441  -3.6663  -3.5071
    -3.4990  -3.4005  -3.2743  -3.2530  -2.8274  -2.7744  -1.5506  -1.1881
    -1.1445  -0.6134  -0.5576  -0.4107  -0.2913  -0.0076   0.4410   1.6646
     2.1671   2.4489   2.6599   2.6918   2.8901   2.9758

          k = 0.0000 0.1429 0.1868 ( 95191 PWs)   bands (ev):

   -46.8346 -46.8346 -46.2283 -46.2283 -46.2267 -46.2267 -46.2265 -46.2265
   -46.2250 -46.2250  -8.5320  -8.4203  -7.2121  -7.0768  -6.1374  -6.0554
    -4.6467  -4.5291  -4.4705  -4.2848  -4.2353  -3.9302  -3.5836  -3.4827
    -3.4820  -3.3523  -3.3163  -3.2611  -2.9497  -2.8942  -1.3181  -1.1199
    -1.0125  -0.7295  -0.6474  -0.3202  -0.2070  -0.0418   0.3525   1.2688
     2.2089   2.3983   2.6666   2.6874   3.0828   3.2067

          k = 0.0000 0.1429 0.2803 ( 95199 PWs)   bands (ev):

   -46.8346 -46.8346 -46.2283 -46.2283 -46.2267 -46.2267 -46.2265 -46.2265
   -46.2250 -46.2250  -8.4976  -8.4578  -7.1710  -7.1228  -6.1139  -6.0846
    -4.5097  -4.4897  -4.4422  -4.2694  -4.2533  -4.1904  -3.4793  -3.4487
    -3.3887  -3.3868  -3.3630  -3.1614  -3.1490  -3.0143  -1.1022  -1.0307
    -0.8445  -0.8416  -0.6889  -0.4196  -0.1877  -0.1025   0.5260   0.8684
     2.2793   2.3471   2.6744   2.6814   3.2663   3.4102

          k = 0.0000 0.2857 0.0000 ( 95155 PWs)   bands (ev):

   -46.8346 -46.8346 -46.2281 -46.2281 -46.2269 -46.2269 -46.2263 -46.2262
   -46.2252 -46.2252  -8.4402  -8.2766  -7.4222  -7.2311  -6.3184  -6.2344
    -4.6979  -4.4570  -4.3764  -3.9679  -3.9009  -3.8125  -3.6511  -3.5147
    -3.4112  -3.3895  -3.1484  -3.1333  -2.9520  -2.8467  -1.5243  -1.1690
    -1.1220  -0.8181  -0.5657  -0.5301  -0.4818  -0.3849   0.6786   1.7671
     1.7718   2.2141   2.6763   2.6915   2.9065   3.1072

          k = 0.0000 0.2857 0.0934 ( 95186 PWs)   bands (ev):

   -46.8346 -46.8346 -46.2281 -46.2281 -46.2269 -46.2269 -46.2263 -46.2262
   -46.2252 -46.2252  -8.4326  -8.2853  -7.4143  -7.2422  -6.3151  -6.2393
    -4.6541  -4.4527  -4.3798  -3.9550  -3.8880  -3.8178  -3.6453  -3.5742
    -3.4426  -3.3692  -3.2035  -3.1093  -2.9277  -2.8868  -1.4680  -1.1779
    -1.0746  -0.8078  -0.6647  -0.5795  -0.4622  -0.2574   0.6742   1.6606
     1.7612   2.1763   2.6779   2.6879   3.0329   3.0960

          k = 0.0000 0.2857 0.1868 ( 95179 PWs)   bands (ev):

   -46.8346 -46.8346 -46.2281 -46.2281 -46.2269 -46.2269 -46.2262 -46.2262
   -46.2252 -46.2252  -8.4112  -8.3092  -7.3912  -7.2723  -6.3054  -6.2527
    -4.5296  -4.4409  -4.3890  -3.9831  -3.8330  -3.8194  -3.7022  -3.6270
    -3.4964  -3.3209  -3.3039  -3.0511  -3.0429  -2.8598  -1.3592  -1.1965
    -0.9400  -0.8378  -0.7090  -0.6815  -0.4206  -0.1353   0.6960   1.4036
     1.7846   2.0965   2.6817   2.6866   3.1358   3.2441

          k = 0.0000 0.2857 0.2803 ( 95183 PWs)   bands (ev):

   -46.8346 -46.8346 -46.2281 -46.2281 -46.2269 -46.2269 -46.2262 -46.2262
   -46.2252 -46.2252  -8.3794  -8.3430  -7.3557  -7.3134  -6.2900  -6.2711
    -4.4246  -4.4098  -4.3354  -4.1248  -3.8501  -3.8473  -3.6262  -3.5994
    -3.5281  -3.4304  -3.2712  -3.1897  -2.9511  -2.8770  -1.2710  -1.2205
    -0.8644  -0.8300  -0.7504  -0.7075  -0.3246  -0.1805   0.8429   1.1066
     1.8710   1.9889   2.6850   2.6863   3.2148   3.3005

          k = 0.0000 0.4286 0.0000 ( 95172 PWs)   bands (ev):

   -46.8346 -46.8346 -46.2277 -46.2277 -46.2273 -46.2273 -46.2259 -46.2259
   -46.2255 -46.2255  -8.2722  -8.1854  -7.5757  -7.4791  -6.3727  -6.3433
    -4.4965  -4.3461  -4.3083  -4.2405  -3.8567  -3.8104  -3.6275  -3.5551
    -3.3508  -3.2275  -3.1514  -3.0331  -2.5749  -2.4057  -1.7955  -1.5228
    -1.1209  -1.0962  -0.7328  -0.5697  -0.5589  -0.5508   1.0981   1.5991
     1.7220   1.8288   2.6917   2.6954   3.2153   3.3008

          k = 0.0000 0.4286 0.0934 ( 95138 PWs)   bands (ev):

   -46.8346 -46.8346 -46.2277 -46.2277 -46.2273 -46.2273 -46.2259 -46.2259
   -46.2255 -46.2255  -8.2670  -8.1884  -7.5743  -7.4869  -6.3716  -6.3450
    -4.4573  -4.3444  -4.3086  -4.2061  -3.8577  -3.8074  -3.6557  -3.5963
    -3.3644  -3.2284  -3.1799  -3.0535  -2.5455  -2.3985  -1.7741  -1.5244
    -1.1451  -1.1041  -0.7385  -0.7039  -0.5144  -0.3871   1.1353   1.6178
     1.6863   1.7733   2.6916   2.6923   3.2055   3.2512

          k = 0.0000 0.4286 0.1868 ( 95173 PWs)   bands (ev):

   -46.8346 -46.8346 -46.2277 -46.2277 -46.2273 -46.2273 -46.2259 -46.2259
   -46.2255 -46.2255  -8.2527  -8.1977  -7.5682  -7.5072  -6.3682  -6.3497
    -4.3560  -4.3390  -4.3017  -4.1246  -3.8456  -3.7997  -3.7074  -3.6626
    -3.5194  -3.3449  -3.1361  -3.0215  -2.4853  -2.3891  -1.7248  -1.5415
    -1.1997  -1.1333  -0.7876  -0.7852  -0.3714  -0.2102   1.1955   1.5507
     1.6407   1.7198   2.6864   2.6903   3.1959   3.2189

          k = 0.0000 0.4286 0.2803 ( 95162 PWs)   bands (ev):

   -46.8346 -46.8346 -46.2277 -46.2277 -46.2273 -46.2273 -46.2259 -46.2259
   -46.2255 -46.2255  -8.2332  -8.2133  -7.5543  -7.5324  -6.3628  -6.3561
    -4.3318  -4.3264  -4.1863  -4.0874  -3.7901  -3.7741  -3.7329  -3.7297
    -3.6560  -3.5549  -3.0458  -3.0055  -2.4274  -2.3944  -1.6635  -1.5942
    -1.2221  -1.1856  -0.8219  -0.8219  -0.1969  -0.1217   1.2403   1.3647
     1.6701   1.7159   2.6842   2.6870   3.2081   3.2233

          k = 0.1429 0.1429 0.0000 ( 95171 PWs)   bands (ev):

   -46.8346 -46.8346 -46.2282 -46.2282 -46.2266 -46.2266 -46.2266 -46.2266
   -46.2251 -46.2251  -8.5193  -8.3419  -7.2932  -7.0776  -6.2971  -6.1894
    -4.7818  -4.3118  -4.2900  -4.1934  -4.1756  -3.7524  -3.6528  -3.5547
    -3.4735  -3.4701  -3.3093  -3.1473  -2.8587  -2.7510  -1.5935  -1.2181
    -1.1888  -0.5384  -0.5252  -0.4756  -0.3847  -0.1190   0.5398   1.6928
     2.0187   2.2423   2.2957   2.7359   2.8610   2.9065

          k = 0.1429 0.1429 0.0934 ( 95189 PWs)   bands (ev):

   -46.8346 -46.8346 -46.2282 -46.2282 -46.2266 -46.2266 -46.2266 -46.2266
   -46.2251 -46.2251  -8.5113  -8.3516  -7.2837  -7.0897  -6.2932  -6.1959
    -4.7367  -4.3075  -4.2877  -4.1965  -4.1795  -3.7338  -3.7106  -3.5330
    -3.4831  -3.4619  -3.3162  -3.1597  -2.8707  -2.8141  -1.5147  -1.2257
    -1.1392  -0.6036  -0.5097  -0.4860  -0.2866  -0.1279   0.4914   1.5800
     2.0613   2.1740   2.2014   2.8282   2.9936   3.0182

          k = 0.1429 0.1429 0.1868 ( 95212 PWs)   bands (ev):

   -46.8346 -46.8346 -46.2282 -46.2282 -46.2266 -46.2266 -46.2266 -46.2266
   -46.2251 -46.2251  -8.4885  -8.3782  -7.2566  -7.1227  -6.2812  -6.2136
    -4.6075  -4.2971  -4.2820  -4.2036  -4.1893  -3.9140  -3.5927  -3.5910
    -3.5156  -3.3349  -3.3159  -3.1900  -2.9782  -2.9217  -1.3638  -1.2291
    -0.9689  -0.6770  -0.5881  -0.4001  -0.2047  -0.1703   0.4552   1.2860
     2.0829   2.1370   2.2054   2.7408   3.2275   3.3479

          k = 0.1429 0.1429 0.2803 ( 95189 PWs)   bands (ev):

   -46.8346 -46.8346 -46.2282 -46.2282 -46.2266 -46.2266 -46.2266 -46.2266
   -46.2251 -46.2251  -8.4545  -8.4152  -7.2158  -7.1681  -6.2617  -6.2375
    -4.4125  -4.2895  -4.2751  -4.2138  -4.1993  -4.1491  -3.5978  -3.5666
    -3.4088  -3.2914  -3.2602  -3.1989  -3.1512  -3.0244  -1.2593  -1.2244
    -0.7113  -0.6984  -0.6575  -0.3724  -0.3042  -0.2283   0.6301   0.9409
     2.0751   2.0940   2.3911   2.5880   3.3985   3.4463

          k = 0.1429 0.2857 0.0000 ( 95196 PWs)   bands (ev):

   -46.8346 -46.8346 -46.2280 -46.2280 -46.2268 -46.2268 -46.2263 -46.2263
   -46.2253 -46.2253  -8.3947  -8.2310  -7.4337  -7.2381  -6.4903  -6.4254
    -4.6553  -4.2447  -4.1309  -4.0513  -3.9340  -3.8030  -3.5797  -3.5409
    -3.3747  -3.3377  -3.1443  -3.0634  -3.0133  -2.8636  -1.4896  -1.2488
    -1.1887  -0.8538  -0.5858  -0.4799  -0.4246  -0.3925   0.6766   1.4785
     1.6516   1.9359   2.1076   2.7956   2.9783   3.2064

          k = 0.1429 0.2857 0.0934 ( 95169 PWs)   bands (ev):

   -46.8346 -46.8346 -46.2280 -46.2280 -46.2268 -46.2268 -46.2263 -46.2263
   -46.2253 -46.2253  -8.3871  -8.2397  -7.4254  -7.2492  -6.4879  -6.4293
    -4.6135  -4.2462  -4.1307  -4.0668  -3.8952  -3.8146  -3.5891  -3.5289
    -3.4195  -3.3488  -3.1414  -3.0974  -2.9623  -2.9199  -1.4720  -1.2997
    -1.1227  -0.8356  -0.5919  -0.5234  -0.4545  -0.2831   0.6852   1.4478
     1.6714   1.8896   2.0835   2.7308   3.0754   3.2542

          k = 0.1429 0.2857 0.1868 ( 95180 PWs)   bands (ev):

   -46.8346 -46.8346 -46.2280 -46.2280 -46.2268 -46.2268 -46.2263 -46.2263
   -46.2253 -46.2253  -8.3657  -8.2637  -7.4013  -7.2796  -6.4807  -6.4398
    -4.4962  -4.2500  -4.1291  -4.0935  -3.8796  -3.7737  -3.6780  -3.5498
    -3.3919  -3.3705  -3.1963  -3.0719  -3.0537  -2.9114  -1.4573  -1.3954
    -0.9516  -0.7960  -0.5989  -0.5610  -0.4746  -0.1899   0.7405   1.3333
     1.7067   1.8201   2.0758   2.5823   3.2689   3.3414

          k = 0.1429 0.2857 0.2803 ( 95179 PWs)   bands (ev):

   -46.8346 -46.8346 -46.2280 -46.2280 -46.2268 -46.2268 -46.2263 -46.2263
   -46.2253 -46.2253  -8.3340  -8.2976  -7.3646  -7.3213  -6.4690  -6.4542
    -4.3407  -4.2536  -4.1371  -4.1155  -3.9649  -3.8204  -3.6001  -3.5421
    -3.4058  -3.3478  -3.2844  -3.1674  -2.9961  -2.9181  -1.4623  -1.4545
    -0.8122  -0.7579  -0.6024  -0.5912  -0.4079  -0.2417   0.8986   1.1288
     1.7087   1.8004   2.1779   2.3886   3.3902   3.4625

          k = 0.1429 0.4286 0.0000 ( 95186 PWs)   bands (ev):

   -46.8346 -46.8346 -46.2276 -46.2276 -46.2272 -46.2272 -46.2260 -46.2260
   -46.2256 -46.2256  -8.2227  -8.1331  -7.5728  -7.4711  -6.5658  -6.5438
    -4.4551  -4.2012  -4.1867  -4.1101  -4.0115  -3.8765  -3.4177  -3.3952
    -3.3274  -3.2191  -3.2139  -3.0318  -2.5526  -2.4067  -1.7741  -1.5375
    -1.2477  -1.2156  -0.7836  -0.6055  -0.4212  -0.4028   1.0229   1.4396
     1.4832   1.5443   2.1740   2.4583   3.3775   3.5008

          k = 0.1429 0.4286 0.0934 ( 95154 PWs)   bands (ev):

   -46.8346 -46.8346 -46.2276 -46.2276 -46.2272 -46.2272 -46.2260 -46.2260
   -46.2256 -46.2256  -8.2174  -8.1362  -7.5710  -7.4789  -6.5652  -6.5453
    -4.4217  -4.2210  -4.1555  -4.0936  -4.0077  -3.8825  -3.4511  -3.3994
    -3.3172  -3.2551  -3.2010  -3.0802  -2.5313  -2.4012  -1.7650  -1.5416
    -1.3072  -1.2485  -0.7196  -0.5827  -0.4152  -0.3707   1.0659   1.4353
     1.5084   1.5587   2.1334   2.3932   3.3470   3.4726

          k = 0.1429 0.4286 0.1868 ( 95149 PWs)   bands (ev):

   -46.8346 -46.8346 -46.2276 -46.2276 -46.2272 -46.2272 -46.2260 -46.2260
   -46.2256 -46.2256  -8.2028  -8.1459  -7.5638  -7.4994  -6.5630  -6.5491
    -4.3441  -4.2429  -4.1228  -4.0315  -3.9683  -3.8869  -3.5505  -3.4363
    -3.3999  -3.3210  -3.1785  -3.0686  -2.4866  -2.3937  -1.7499  -1.5812
    -1.3958  -1.3164  -0.6122  -0.5650  -0.3825  -0.2606   1.1553   1.4054
     1.5558   1.6018   2.0585   2.2534   3.3159   3.4165

          k = 0.1429 0.4286 0.2803 ( 95127 PWs)   bands (ev):

   -46.8346 -46.8346 -46.2276 -46.2276 -46.2272 -46.2272 -46.2260 -46.2260
   -46.2256 -46.2256  -8.1826  -8.1621  -7.5485  -7.5253  -6.5593  -6.5542
    -4.2936  -4.2587  -4.0399  -4.0147  -3.9037  -3.7948  -3.7302  -3.5635
    -3.4441  -3.4086  -3.0886  -3.0460  -2.4429  -2.3956  -1.7309  -1.6685
    -1.4114  -1.3775  -0.5750  -0.5654  -0.2680  -0.1955   1.2408   1.3399
     1.5869   1.6321   2.0401   2.1322   3.3334   3.3798

          k = 0.2857 0.2857 0.0000 ( 95157 PWs)   bands (ev):

   -46.8346 -46.8346 -46.2277 -46.2277 -46.2266 -46.2266 -46.2266 -46.2266
   -46.2255 -46.2255  -8.2641  -8.1049  -7.4899  -7.2858  -6.7816  -6.7620
    -4.5308  -4.2524  -4.2116  -3.8873  -3.7235  -3.6415  -3.4602  -3.2907
    -3.2529  -3.1811  -3.1277  -3.1195  -2.9574  -2.9166  -1.4152  -1.3870
    -1.2971  -1.0092  -0.9034  -0.5614  -0.3070  -0.2604   0.6702   1.0265
     1.3283   1.5841   1.7844   2.5954   3.2211   3.4460

          k = 0.2857 0.2857 0.0934 ( 95170 PWs)   bands (ev):

   -46.8346 -46.8346 -46.2277 -46.2277 -46.2266 -46.2266 -46.2266 -46.2266
   -46.2255 -46.2255  -8.2568  -8.1134  -7.4809  -7.2972  -6.7814  -6.7635
    -4.4986  -4.2761  -4.2110  -3.8479  -3.6857  -3.6339  -3.4747  -3.3591
    -3.2753  -3.1502  -3.1125  -3.1013  -2.9845  -2.9577  -1.5147  -1.4809
    -1.1584  -0.9765  -0.8922  -0.5261  -0.2945  -0.2764   0.7176   1.0431
     1.3875   1.5870   1.7294   2.5253   3.1884   3.4456

          k = 0.2857 0.2857 0.1868 ( 95126 PWs)   bands (ev):

   -46.8346 -46.8346 -46.2277 -46.2277 -46.2266 -46.2266 -46.2266 -46.2266
   -46.2255 -46.2255  -8.2359  -8.1368  -7.4550  -7.3282  -6.7803  -6.7675
    -4.4273  -4.3209  -4.1815  -3.7365  -3.6788  -3.6126  -3.5059  -3.4506
    -3.3015  -3.1517  -3.1180  -3.0726  -3.0380  -2.9917  -1.6473  -1.6353
    -1.0072  -0.8884  -0.8400  -0.4816  -0.3095  -0.2860   0.8622   1.0913
     1.5257   1.5841   1.5933   2.3391   3.1728   3.4101

          k = 0.2857 0.2857 0.2803 ( 95137 PWs)   bands (ev):

   -46.8346 -46.8346 -46.2277 -46.2277 -46.2266 -46.2266 -46.2266 -46.2266
   -46.2255 -46.2255  -8.2050  -8.1697  -7.4163  -7.3711  -6.7773  -6.7727
    -4.3808  -4.3560  -4.0577  -3.8563  -3.5959  -3.5930  -3.5121  -3.3944
    -3.3419  -3.3339  -3.0818  -3.0535  -3.0222  -3.0099  -1.7465  -1.7299
    -0.9401  -0.9039  -0.6280  -0.4938  -0.3332  -0.3196   1.0616   1.1469
     1.4462   1.4515   1.8093   2.0840   3.2343   3.3299

          k = 0.2857 0.4286 0.0000 ( 95171 PWs)   bands (ev):

   -46.8346 -46.8346 -46.2274 -46.2274 -46.2270 -46.2270 -46.2263 -46.2262
   -46.2259 -46.2259  -8.0785  -7.9784  -7.5753  -7.4491  -6.9489  -6.9455
    -4.3430  -4.3345  -4.3239  -4.0904  -3.6096  -3.4154  -3.3994  -3.3089
    -3.1586  -3.1162  -3.0350  -3.0198  -2.5024  -2.4155  -1.7131  -1.5905
    -1.4431  -1.3986  -1.0194  -0.8325  -0.1806  -0.1644   0.7802   0.8647
     1.1155   1.2349   1.8759   2.2019   3.6239   3.7087

          k = 0.2857 0.4286 0.0934 ( 95132 PWs)   bands (ev):

   -46.8346 -46.8346 -46.2274 -46.2274 -46.2270 -46.2270 -46.2263 -46.2262
   -46.2259 -46.2259  -8.0728  -7.9820  -7.5716  -7.4574  -6.9496  -6.9466
    -4.3889  -4.3734  -4.2416  -4.0360  -3.5712  -3.4102  -3.3850  -3.2908
    -3.2257  -3.1193  -3.0812  -3.0388  -2.4963  -2.4123  -1.7498  -1.6228
    -1.5096  -1.4411  -0.9280  -0.7574  -0.1846  -0.1738   0.8458   0.9013
     1.1745   1.2891   1.8168   2.1395   3.4752   3.6339

          k = 0.2857 0.4286 0.1868 ( 95124 PWs)   bands (ev):

   -46.8346 -46.8346 -46.2274 -46.2274 -46.2270 -46.2270 -46.2263 -46.2262
   -46.2259 -46.2259  -8.0569  -7.9932  -7.5594  -7.4795  -6.9511  -6.9492
    -4.4348  -4.4253  -4.1036  -3.9030  -3.5275  -3.4030  -3.3774  -3.3385
    -3.2800  -3.1971  -3.1159  -3.0489  -2.4836  -2.4100  -1.8522  -1.7811
    -1.5289  -1.4843  -0.7629  -0.6410  -0.1965  -0.1887   1.0108   1.0215
     1.3316   1.3981   1.6574   1.9721   3.2494   3.4096

          k = 0.2857 0.4286 0.2803 ( 95083 PWs)   bands (ev):

   -46.8346 -46.8346 -46.2274 -46.2274 -46.2270 -46.2270 -46.2262 -46.2262
   -46.2259 -46.2259  -8.0348  -8.0118  -7.5378  -7.5091  -6.9521  -6.9514
    -4.4620  -4.4582  -3.9148  -3.7434  -3.6607  -3.4982  -3.3999  -3.3766
    -3.2691  -3.1634  -3.1203  -3.0596  -2.4654  -2.4187  -1.9413  -1.9193
    -1.5192  -1.5019  -0.6321  -0.5876  -0.2083  -0.1976   1.1846   1.2501
     1.4137   1.4252   1.5567   1.7603   3.1221   3.1922

          k = 0.4286 0.4286 0.0000 ( 95128 PWs)   bands (ev):

   -46.8346 -46.8346 -46.2270 -46.2270 -46.2266 -46.2266 -46.2266 -46.2266
   -46.2262 -46.2262  -7.8613  -7.7450  -7.6205  -7.4227  -7.3421  -7.2685
    -4.4687  -4.4613  -4.1492  -3.9820  -3.7866  -3.6307  -3.0810  -3.0280
    -3.0047  -2.9652  -2.6093  -2.5803  -2.3818  -2.3521  -1.8027  -1.7316
    -1.5526  -1.5307  -1.4569  -1.2898  -0.0203  -0.0144   0.6345   0.6515
     0.8701   0.9484   1.8486   1.9818   3.9292   4.0433

          k = 0.4286 0.4286 0.0934 ( 95150 PWs)   bands (ev):

   -46.8346 -46.8346 -46.2270 -46.2270 -46.2266 -46.2266 -46.2266 -46.2266
   -46.2262 -46.2262  -7.8552  -7.7503  -7.6117  -7.4336  -7.3396  -7.2736
    -4.4969  -4.4931  -4.0945  -3.9427  -3.7235  -3.5820  -3.1457  -3.0919
    -3.0026  -2.9672  -2.6091  -2.5801  -2.3871  -2.3488  -1.8153  -1.7594
    -1.7140  -1.6797  -1.2879  -1.1879  -0.0248  -0.0205   0.7057   0.7455
     0.9320   1.0187   1.7968   1.9309   3.6696   3.7756

          k = 0.4286 0.4286 0.1868 ( 95118 PWs)   bands (ev):

   -46.8346 -46.8346 -46.2270 -46.2270 -46.2266 -46.2266 -46.2266 -46.2266
   -46.2262 -46.2262  -7.8383  -7.7653  -7.5866  -7.4637  -7.3320  -7.2870
    -4.5496  -4.5485  -3.9589  -3.8302  -3.5836  -3.4670  -3.3047  -3.2517
    -3.0025  -2.9764  -2.6063  -2.5827  -2.4061  -2.3557  -1.9824  -1.9476
    -1.7518  -1.7177  -1.1442  -1.0836  -0.0308  -0.0293   0.8920   0.9777
     1.1002   1.1888   1.6503   1.7877   3.2541   3.3398

          k = 0.4286 0.4286 0.2803 ( 95128 PWs)   bands (ev):

   -46.8346 -46.8346 -46.2270 -46.2270 -46.2266 -46.2266 -46.2266 -46.2266
   -46.2262 -46.2262  -7.8141  -7.7880  -7.5490  -7.5052  -7.3198  -7.3039
    -4.5847  -4.5844  -3.7729  -3.6599  -3.5733  -3.4559  -3.3845  -3.3694
    -3.0054  -2.9961  -2.5967  -2.5878  -2.4290  -2.4002  -2.1036  -2.0869
    -1.7377  -1.7264  -1.0633  -1.0430  -0.0330  -0.0329   1.1336   1.2105
     1.3303   1.3343   1.4414   1.5763   2.9703   3.0083

     the Fermi energy is     0.2098 ev

!    total energy              =    -214.38266531 Ry
     estimated scf accuracy    <          4.1E-09 Ry
     smearing contrib. (-TS)   =       0.00000178 Ry
     internal energy E=F+TS    =    -214.38266709 Ry

     The total energy is F=E-TS. E is the sum of the following terms:
     one-electron contribution =     -89.52202356 Ry
     hartree contribution      =      44.11978142 Ry
     xc contribution           =     -67.81704640 Ry
     ewald contribution        =    -101.16337855 Ry

     convergence has been achieved in  12 iterations

     Forces acting on atoms (cartesian axes, Ry/au):

     atom    1 type  1   force =     0.00000000    0.00000000    0.00000000
     atom    2 type  1   force =     0.00000000    0.00000000    0.00000000
     atom    3 type  1   force =     0.00000000    0.00000000    0.00000000
     atom    4 type  1   force =     0.00000000    0.00000000    0.00000000
     atom    5 type  1   force =     0.00000000    0.00000000    0.00000000
     atom    6 type  1   force =     0.00000000    0.00000000    0.00000000
     atom    7 type  2   force =    -0.00200430    0.00200430   -0.00000000
     atom    8 type  2   force =     0.00200430    0.00200430   -0.00000000
     atom    9 type  2   force =     0.00200430    0.00200430    0.00000000
     atom   10 type  2   force =    -0.00200430    0.00200430   -0.00000000
     atom   11 type  2   force =     0.00200430   -0.00200430    0.00000000
     atom   12 type  2   force =     0.00200430   -0.00200430    0.00000000
     atom   13 type  2   force =    -0.00200430   -0.00200430   -0.00000000
     atom   14 type  2   force =    -0.00200430   -0.00200430    0.00000000
     atom   15 type  2   force =     0.00000000    0.00000000   -0.00000000
     atom   16 type  2   force =     0.00000000    0.00000000    0.00000000
     atom   17 type  3   force =    -0.00923985   -0.03707768    0.03149648
     atom   18 type  3   force =     0.00923985   -0.03707768   -0.03149648
     atom   19 type  3   force =     0.03707768    0.00923985   -0.03149648
     atom   20 type  3   force =     0.00923985   -0.03707768    0.03149648
     atom   21 type  3   force =     0.03707768    0.00923985    0.03149648
     atom   22 type  3   force =     0.00923985    0.03707768    0.03149648
     atom   23 type  3   force =    -0.03707768    0.00923985    0.03149648
     atom   24 type  3   force =     0.00923985    0.03707768   -0.03149648
     atom   25 type  3   force =    -0.03707768    0.00923985   -0.03149648
     atom   26 type  3   force =     0.03707768   -0.00923985    0.03149648
     atom   27 type  3   force =    -0.00923985   -0.03707768   -0.03149648
     atom   28 type  3   force =     0.03707768   -0.00923985   -0.03149648
     atom   29 type  3   force =    -0.00923985    0.03707768   -0.03149648
     atom   30 type  3   force =    -0.03707768   -0.00923985   -0.03149648
     atom   31 type  3   force =    -0.00923985    0.03707768    0.03149648
     atom   32 type  3   force =    -0.03707768   -0.00923985    0.03149648
     atom   33 type  3   force =    -0.03658065   -0.00579171    0.00000000
     atom   34 type  3   force =     0.03658065   -0.00579171    0.00000000
     atom   35 type  3   force =     0.00579171    0.03658065    0.00000000
     atom   36 type  3   force =     0.03658065    0.00579171   -0.00000000
     atom   37 type  3   force =    -0.00579171    0.03658065   -0.00000000
     atom   38 type  3   force =     0.00579171   -0.03658065   -0.00000000
     atom   39 type  3   force =    -0.03658065    0.00579171    0.00000000
     atom   40 type  3   force =    -0.00579171   -0.03658065    0.00000000
     atom   41 type  3   force =     0.00000000    0.00000000   -0.05401412
     atom   42 type  3   force =     0.00000000    0.00000000    0.05401412
     atom   43 type  3   force =     0.00000000    0.00000000   -0.05401412
     atom   44 type  3   force =     0.00000000    0.00000000    0.05401412

     Total force =     0.248882     Total SCF correction =     0.000033


     Computing stress (Cartesian axis) and pressure

          total   stress  (Ry/bohr**3)                   (kbar)     P=     -162.67
  -0.00108420   0.00000000   0.00000000         -159.49        0.00        0.00
   0.00000000  -0.00108420   0.00000000            0.00     -159.49        0.00
   0.00000000   0.00000000  -0.00114897            0.00        0.00     -169.02


     BFGS Geometry Optimization
     Energy error            =      0.0E+00 Ry
     Gradient error          =      5.4E-02 Ry/Bohr
     Cell gradient error     =      1.7E+02 kbar

     number of scf cycles    =   1
     number of bfgs steps    =   0

     enthalpy           new  =    -214.3826653062 Ry

     new trust radius        =       0.3181685391 bohr
     new conv_thr            =       0.0000000100 Ry

     new unit-cell volume =   2819.88559 a.u.^3 (   417.86393 Ang^3 )
     density =      0.64681 g/cm^3

CELL_PARAMETERS (alat= 12.61135185)
   0.972894969   0.000000000   0.000000000
   0.000000000   0.972894969   0.000000000
   0.000000000   0.000000000   1.485301590

ATOMIC_POSITIONS (crystal)
B             0.0000000000        0.5000000000        0.0000000000
B             0.5000000000        0.0000000000        0.5000000000
B             0.0000000000        0.5000000000        0.5000000000
B             0.5000000000        0.0000000000        0.0000000000
B             0.0000000000        0.0000000000        0.0000000000
B             0.5000000000        0.5000000000        0.5000000000
Li            0.2124939716        0.2875060284        0.2500000000
Li            0.2875060284        0.7875060284        0.2500000000
Li            0.2875060284        0.7875060284        0.7500000000
Li            0.2124939716        0.2875060284        0.7500000000
Li            0.7875060284        0.7124939716        0.2500000000
Li            0.7875060284        0.7124939716        0.7500000000
Li            0.7124939716        0.2124939716        0.2500000000
Li            0.7124939716        0.2124939716        0.7500000000
Li            0.0000000000        0.0000000000        0.5000000000
Li            0.5000000000        0.5000000000        0.0000000000
H             0.0430652983        0.6770092859        0.3841194585
H             0.4569347017        0.1770092859        0.1158805415
H             0.8229907141        0.4569347017        0.1158805415
H             0.4569347017        0.1770092859        0.8841194585
H             0.8229907141        0.4569347017        0.8841194585
H             0.9569347017        0.3229907141        0.3841194585
H             0.6770092859        0.9569347017        0.3841194585
H             0.9569347017        0.3229907141        0.6158805415
H             0.6770092859        0.9569347017        0.6158805415
H             0.3229907141        0.0430652983        0.3841194585
H             0.0430652983        0.6770092859        0.6158805415
H             0.3229907141        0.0430652983        0.6158805415
H             0.5430652983        0.8229907141        0.1158805415
H             0.1770092859        0.5430652983        0.1158805415
H             0.5430652983        0.8229907141        0.8841194585
H             0.1770092859        0.5430652983        0.8841194585
H             0.0722211171        0.2471673843        0.0000000000
H             0.4277788829        0.7471673843        0.5000000000
H             0.2528326157        0.4277788829        0.5000000000
H             0.9277788829        0.7528326157       -0.0000000000
H             0.2471673843        0.9277788829       -0.0000000000
H             0.7528326157        0.0722211171       -0.0000000000
H             0.5722211171        0.2528326157        0.5000000000
H             0.7471673843        0.5722211171        0.5000000000
H             0.0000000000        0.0000000000        0.1677040852
H             0.5000000000        0.5000000000        0.3322959148
H             0.5000000000        0.5000000000        0.6677040852
H             0.0000000000        0.0000000000        0.8322959148



     Writing config-only to output data dir ./Li5B3H14_sod.save/
     NEW-OLD atomic charge density approx. for the potential
     extrapolated charge   69.72733, renormalised to   76.00000

     total cpu time spent up to now is      291.6 secs

     Self-consistent Calculation

     iteration #  1     ecut=   150.00 Ry     beta= 0.70
     Davidson diagonalization with overlap
     c_bands:  1 eigenvalues not converged
     c_bands:  1 eigenvalues not converged
     c_bands:  1 eigenvalues not converged
     c_bands:  1 eigenvalues not converged
     c_bands:  2 eigenvalues not converged
     c_bands:  1 eigenvalues not converged
     ethr =  1.00E-06,  avg # of iterations = 14.4

     total cpu time spent up to now is      352.1 secs

     WARNING: integrated charge=    76.00027541, expected=    76.00000000

     total energy              =    -214.40751031 Ry
     estimated scf accuracy    <       0.32216828 Ry

     iteration #  2     ecut=   150.00 Ry     beta= 0.70
     Davidson diagonalization with overlap
     ethr =  4.24E-04,  avg # of iterations =  3.0

     total cpu time spent up to now is      373.4 secs

     WARNING: integrated charge=    76.00020070, expected=    76.00000000

     total energy              =    -214.65336086 Ry
     estimated scf accuracy    <       0.79276774 Ry

     iteration #  3     ecut=   150.00 Ry     beta= 0.70
     Davidson diagonalization with overlap
     ethr =  4.24E-04,  avg # of iterations =  2.0

     total cpu time spent up to now is      388.6 secs

     WARNING: integrated charge=    76.00013070, expected=    76.00000000

     total energy              =    -214.68881917 Ry
     estimated scf accuracy    <       0.11078895 Ry

     iteration #  4     ecut=   150.00 Ry     beta= 0.70
     Davidson diagonalization with overlap
     ethr =  1.46E-04,  avg # of iterations =  3.2

     total cpu time spent up to now is      405.3 secs

     WARNING: integrated charge=    76.00008050, expected=    76.00000000

     total energy              =    -214.70413643 Ry
     estimated scf accuracy    <       0.01355017 Ry

     iteration #  5     ecut=   150.00 Ry     beta= 0.70
     Davidson diagonalization with overlap
     ethr =  1.78E-05,  avg # of iterations =  5.9

     total cpu time spent up to now is      427.7 secs

     WARNING: integrated charge=    76.00006312, expected=    76.00000000

     total energy              =    -214.71007790 Ry
     estimated scf accuracy    <       0.00046790 Ry

     iteration #  6     ecut=   150.00 Ry     beta= 0.70
     Davidson diagonalization with overlap
     c_bands:  1 eigenvalues not converged
     ethr =  6.16E-07,  avg # of iterations =  7.3

     total cpu time spent up to now is      455.1 secs

     WARNING: integrated charge=    76.00002950, expected=    76.00000000

     total energy              =    -214.71046876 Ry
     estimated scf accuracy    <       0.00031646 Ry

     iteration #  7     ecut=   150.00 Ry     beta= 0.70
     Davidson diagonalization with overlap
     c_bands:  1 eigenvalues not converged
     ethr =  4.16E-07,  avg # of iterations =  4.5

     total cpu time spent up to now is      474.7 secs

     total energy              =    -214.71069875 Ry
     estimated scf accuracy    <       0.00124222 Ry

     iteration #  8     ecut=   150.00 Ry     beta= 0.70
     Davidson diagonalization with overlap
     ethr =  4.16E-07,  avg # of iterations =  1.0

     total cpu time spent up to now is      487.4 secs

     total energy              =    -214.71022036 Ry
     estimated scf accuracy    <       0.00110139 Ry

     iteration #  9     ecut=   150.00 Ry     beta= 0.70
     Davidson diagonalization with overlap
     ethr =  4.16E-07,  avg # of iterations =  2.5

     total cpu time spent up to now is      504.2 secs

     total energy              =    -214.71039377 Ry
     estimated scf accuracy    <       0.00001184 Ry

     iteration # 10     ecut=   150.00 Ry     beta= 0.70
     Davidson diagonalization with overlap
     ethr =  1.56E-08,  avg # of iterations =  5.0

     total cpu time spent up to now is      528.8 secs

     total energy              =    -214.71040471 Ry
     estimated scf accuracy    <       0.00000064 Ry

     iteration # 11     ecut=   150.00 Ry     beta= 0.70
     Davidson diagonalization with overlap
     ethr =  8.47E-10,  avg # of iterations =  4.1

     total cpu time spent up to now is      548.0 secs

     total energy              =    -214.71040490 Ry
     estimated scf accuracy    <       0.00000029 Ry

     iteration # 12     ecut=   150.00 Ry     beta= 0.70
     Davidson diagonalization with overlap
     ethr =  3.87E-10,  avg # of iterations =  2.1

     total cpu time spent up to now is      564.1 secs

     End of self-consistent calculation

          k = 0.0000 0.0000 0.0000 ( 95119 PWs)   bands (ev):

   -46.3520 -46.3520 -45.7500 -45.7500 -45.7473 -45.7473 -45.7473 -45.7473
   -45.7449 -45.7449  -8.6968  -8.4990  -7.1770  -6.9215  -5.9142  -5.7372
    -4.8247  -4.5178  -4.5178  -4.4068  -4.4068  -3.6180  -3.5941  -3.3627
    -3.3402  -3.3402  -3.0801  -3.0801  -2.6068  -2.5298  -1.3023  -0.8396
    -0.8396  -0.0790  -0.0790   0.0756   0.1054   0.6621   1.0717   2.7505
     3.0197   3.1223   3.1884   3.1884   3.2587   3.2587

          k = 0.0000 0.0000 0.0962 ( 95167 PWs)   bands (ev):

   -46.3520 -46.3520 -45.7500 -45.7500 -45.7473 -45.7473 -45.7473 -45.7473
   -45.7449 -45.7449  -8.6879  -8.5099  -7.1660  -6.9361  -5.9081  -5.7485
    -4.7754  -4.5124  -4.5124  -4.4123  -4.4123  -3.6682  -3.5719  -3.3485
    -3.3300  -3.3300  -3.0966  -3.0966  -2.6558  -2.5978  -1.1837  -0.7993
    -0.7993  -0.1145  -0.1145   0.1244   0.1526   0.6468   0.9620   2.3408
     3.1922   3.1922   3.2554   3.2555   3.2610   3.3924

          k = 0.0000 0.0000 0.1924 ( 95251 PWs)   bands (ev):

   -46.3520 -46.3520 -45.7500 -45.7500 -45.7473 -45.7473 -45.7473 -45.7473
   -45.7449 -45.7449  -8.6627  -8.5397  -7.1343  -6.9758  -5.8894  -5.7789
    -4.6342  -4.4971  -4.4971  -4.4278  -4.4278  -3.8819  -3.4403  -3.3003
    -3.3003  -3.2668  -3.1402  -3.1402  -2.7846  -2.7755  -0.8823  -0.6883
    -0.6883  -0.2151  -0.2151   0.1534   0.2683   0.5996   0.8191   1.8342
     3.2026   3.2026   3.2462   3.2462   3.5712   3.6903

          k = 0.0000 0.0000 0.2885 ( 95200 PWs)   bands (ev):

   -46.3520 -46.3520 -45.7500 -45.7500 -45.7473 -45.7473 -45.7473 -45.7473
   -45.7449 -45.7449  -8.6250  -8.5812  -7.0864  -7.0300  -5.8584  -5.8189
    -4.4750  -4.4750  -4.4502  -4.4502  -4.4185  -4.1546  -3.2540  -3.2540
    -3.2425  -3.1973  -3.1973  -3.1253  -3.0077  -2.9539  -0.5321  -0.5321
    -0.4919  -0.3634  -0.3634  -0.0970   0.4023   0.5177   0.9871   1.3673
     3.2171   3.2171   3.2325   3.2325   3.8626   3.9756

          k = 0.0000 0.1468 0.0000 ( 95143 PWs)   bands (ev):

   -46.3520 -46.3520 -45.7498 -45.7498 -45.7474 -45.7474 -45.7472 -45.7472
   -45.7450 -45.7450  -8.6507  -8.4557  -7.2458  -6.9982  -6.0596  -5.9129
    -4.7796  -4.4805  -4.3792  -4.2071  -4.1178  -3.6836  -3.5597  -3.4008
    -3.3473  -3.3092  -3.1443  -3.0979  -2.6673  -2.5790  -1.2329  -0.8274
    -0.8033  -0.1004  -0.0813   0.0014   0.1154   0.4631   1.0947   2.5984
     2.7644   3.0968   3.1976   3.2082   3.2564   3.2727

          k = 0.0000 0.1468 0.0962 ( 95172 PWs)   bands (ev):

   -46.3520 -46.3520 -45.7498 -45.7498 -45.7474 -45.7474 -45.7472 -45.7472
   -45.7450 -45.7450  -8.6419  -8.4664  -7.2351  -7.0123  -6.0544  -5.9220
    -4.7311  -4.4752  -4.3836  -4.2032  -4.1227  -3.6794  -3.5935  -3.3917
    -3.3632  -3.2720  -3.1535  -3.1243  -2.6934  -2.6430  -1.1347  -0.8034
    -0.7565  -0.1749  -0.1178   0.0419   0.2011   0.4523   1.0204   2.3337
     2.7616   3.0079   3.2107   3.2462   3.4052   3.5497

          k = 0.0000 0.1468 0.1924 ( 95191 PWs)   bands (ev):

   -46.3520 -46.3520 -45.7498 -45.7498 -45.7474 -45.7474 -45.7472 -45.7472
   -45.7450 -45.7450  -8.6170  -8.4958  -7.2043  -7.0507  -6.0384  -5.9466
    -4.5922  -4.4605  -4.3966  -4.1919  -4.1361  -3.8596  -3.4939  -3.3654
    -3.3585  -3.2307  -3.1893  -3.1311  -2.8273  -2.7564  -0.9116  -0.7293
    -0.6081  -0.3030  -0.2139   0.1301   0.2678   0.4184   0.9398   1.8937
     2.7944   2.9707   3.2182   3.2414   3.6756   3.7949

          k = 0.0000 0.1468 0.2885 ( 95199 PWs)   bands (ev):

   -46.3520 -46.3520 -45.7498 -45.7498 -45.7474 -45.7474 -45.7472 -45.7472
   -45.7450 -45.7450  -8.5797  -8.5366  -7.1579  -7.1032  -6.0123  -5.9795
    -4.4394  -4.4172  -4.3795  -4.1745  -4.1557  -4.1210  -3.3551  -3.3276
    -3.2793  -3.2645  -3.2554  -3.0512  -3.0119  -2.8750  -0.7044  -0.6355
    -0.4272  -0.4263  -0.2497   0.0310   0.2748   0.3580   1.1163   1.4694
     2.8610   2.9253   3.2267   3.2344   3.9319   3.9480

          k = 0.0000 0.2937 0.0000 ( 95155 PWs)   bands (ev):

   -46.3520 -46.3520 -45.7495 -45.7495 -45.7478 -45.7478 -45.7468 -45.7468
   -45.7454 -45.7453  -8.5196  -8.3413  -7.4365  -7.2220  -6.2347  -6.1401
    -4.6475  -4.3818  -4.2910  -3.8973  -3.7823  -3.7033  -3.5372  -3.4449
    -3.3048  -3.2555  -2.9891  -2.9540  -2.8316  -2.7115  -1.1372  -0.7931
    -0.7416  -0.4245  -0.1349  -0.0959  -0.0558   0.0873   1.2788   2.4194
     2.4955   2.8989   3.2299   3.2459   3.3640   3.6347

          k = 0.0000 0.2937 0.0962 ( 95186 PWs)   bands (ev):

   -46.3520 -46.3520 -45.7495 -45.7495 -45.7478 -45.7478 -45.7468 -45.7468
   -45.7454 -45.7454  -8.5114  -8.3508  -7.4276  -7.2345  -6.2311  -6.1456
    -4.6012  -4.3769  -4.2950  -3.8739  -3.7809  -3.7078  -3.5325  -3.4933
    -3.3294  -3.2452  -3.0555  -2.9334  -2.8014  -2.7479  -1.0872  -0.8014
    -0.6891  -0.4178  -0.2328  -0.1532  -0.0270   0.2151   1.2764   2.3613
     2.4055   2.8323   3.2316   3.2379   3.5430   3.6935

          k = 0.0000 0.2937 0.1924 ( 95179 PWs)   bands (ev):

   -46.3520 -46.3520 -45.7495 -45.7495 -45.7478 -45.7478 -45.7468 -45.7468
   -45.7454 -45.7454  -8.4881  -8.3770  -7.4019  -7.2685  -6.2204  -6.1608
    -4.4695  -4.3636  -4.3061  -3.8918  -3.7267  -3.7217  -3.6022  -3.5154
    -3.3857  -3.1959  -3.1701  -2.9197  -2.8747  -2.7168  -0.9893  -0.8213
    -0.5449  -0.4396  -0.2951  -0.2642   0.0295   0.3435   1.3016   2.0634
     2.4193   2.7386   3.2357   3.2380   3.7981   3.7991

          k = 0.0000 0.2937 0.2885 ( 95183 PWs)   bands (ev):

   -46.3520 -46.3520 -45.7495 -45.7495 -45.7478 -45.7478 -45.7468 -45.7468
   -45.7454 -45.7454  -8.4535  -8.4139  -7.3623  -7.3147  -6.2030  -6.1817
    -4.3450  -4.3271  -4.2682  -4.0474  -3.7384  -3.7379  -3.5139  -3.4854
    -3.4282  -3.3182  -3.1379  -3.0544  -2.7924  -2.7267  -0.9053  -0.8512
    -0.4542  -0.4139  -0.3585  -0.3103   0.1457   0.3004   1.4542   1.7354
     2.5050   2.6264   3.2386   3.2389   3.8859   3.9303

          k = 0.0000 0.4405 0.0000 ( 95172 PWs)   bands (ev):

   -46.3520 -46.3520 -45.7489 -45.7489 -45.7483 -45.7483 -45.7464 -45.7464
   -45.7458 -45.7458  -8.3393  -8.2440  -7.6026  -7.4948  -6.2905  -6.2570
    -4.4387  -4.2579  -4.2129  -4.1746  -3.7432  -3.7117  -3.5181  -3.4550
    -3.2667  -3.0929  -3.0493  -2.8970  -2.3511  -2.1631  -1.5000  -1.2082
    -0.7475  -0.7198  -0.2822  -0.1446  -0.1246  -0.0983   1.7325   2.3033
     2.4152   2.5067   3.2480   3.2524   3.7972   3.9077

          k = 0.0000 0.4405 0.0962 ( 95138 PWs)   bands (ev):

   -46.3520 -46.3520 -45.7489 -45.7489 -45.7483 -45.7483 -45.7464 -45.7464
   -45.7458 -45.7458  -8.3336  -8.2472  -7.6012  -7.5036  -6.2892  -6.2590
    -4.3964  -4.2553  -4.2138  -4.1377  -3.7465  -3.7086  -3.5483  -3.4983
    -3.2770  -3.0929  -3.0788  -2.9146  -2.3229  -2.1577  -1.4793  -1.2122
    -0.7721  -0.7286  -0.3046  -0.2752  -0.0677   0.0745   1.7711   2.3353
     2.3742   2.4326   3.2472   3.2477   3.7665   3.8836

          k = 0.0000 0.4405 0.1924 ( 95173 PWs)   bands (ev):

   -46.3520 -46.3520 -45.7489 -45.7489 -45.7483 -45.7483 -45.7464 -45.7464
   -45.7458 -45.7458  -8.3179  -8.2574  -7.5946  -7.5264  -6.2855  -6.2644
    -4.2817  -4.2478  -4.2140  -4.0492  -3.7402  -3.6999  -3.6036  -3.5655
    -3.4221  -3.2406  -3.0074  -2.8875  -2.2626  -2.1523  -1.4299  -1.2355
    -0.8265  -0.7605  -0.3647  -0.3635   0.0983   0.2668   1.8295   2.2265
     2.3253   2.4052   3.2372   3.2451   3.7744   3.8599

          k = 0.0000 0.4405 0.2885 ( 95162 PWs)   bands (ev):

   -46.3520 -46.3520 -45.7489 -45.7489 -45.7483 -45.7483 -45.7464 -45.7464
   -45.7458 -45.7458  -8.2964  -8.2745  -7.5793  -7.5547  -6.2793  -6.2717
    -4.2381  -4.2304  -4.1128  -4.0073  -3.6871  -3.6679  -3.6326  -3.6282
    -3.5670  -3.4585  -2.9154  -2.8728  -2.2018  -2.1633  -1.3662  -1.2934
    -0.8494  -0.8142  -0.4018  -0.4015   0.2856   0.3638   1.8698   2.0051
     2.3633   2.4150   3.2341   3.2390   3.8590   3.8809

          k = 0.1468 0.1468 0.0000 ( 95171 PWs)   bands (ev):

   -46.3520 -46.3520 -45.7497 -45.7497 -45.7473 -45.7473 -45.7473 -45.7473
   -45.7451 -45.7451  -8.6041  -8.4113  -7.2949  -7.0505  -6.2171  -6.0977
    -4.7347  -4.2236  -4.1882  -4.0943  -4.0784  -3.6844  -3.5842  -3.4239
    -3.3464  -3.3370  -3.1932  -3.0164  -2.7277  -2.6193  -1.1775  -0.8429
    -0.8074  -0.0975  -0.0841  -0.0348   0.0994   0.3249   1.1189   2.3364
     2.6231   2.8388   3.0047   3.1750   3.4073   3.4691

          k = 0.1468 0.1468 0.0962 ( 95189 PWs)   bands (ev):

   -46.3520 -46.3520 -45.7497 -45.7497 -45.7473 -45.7473 -45.7473 -45.7473
   -45.7451 -45.7451  -8.5954  -8.4219  -7.2842  -7.0644  -6.2128  -6.1050
    -4.6872  -4.2185  -4.1860  -4.0976  -4.0829  -3.6594  -3.6389  -3.4137
    -3.3570  -3.3208  -3.1992  -3.0294  -2.7390  -2.6850  -1.1064  -0.8475
    -0.7493  -0.1659  -0.0707  -0.0454   0.1895   0.3184   1.0721   2.2300
     2.6671   2.7610   2.7839   3.4314   3.5454   3.5485

          k = 0.1468 0.1468 0.1924 ( 95212 PWs)   bands (ev):

   -46.3520 -46.3520 -45.7497 -45.7497 -45.7473 -45.7473 -45.7473 -45.7473
   -45.7451 -45.7451  -8.5707  -8.4509  -7.2537  -7.1021  -6.1998  -6.1248
    -4.5511  -4.2052  -4.1810  -4.1060  -4.0942  -3.8403  -3.5105  -3.4647
    -3.3924  -3.1992  -3.1957  -3.0608  -2.8567  -2.7878  -0.9727  -0.8471
    -0.5550  -0.2490  -0.1546   0.0409   0.2514   0.2826   1.0447   1.9186
     2.6438   2.7052   2.8179   3.3569   3.7661   3.9279

          k = 0.1468 0.1468 0.2885 ( 95189 PWs)   bands (ev):

   -46.3520 -46.3520 -45.7497 -45.7497 -45.7473 -45.7473 -45.7473 -45.7473
   -45.7451 -45.7451  -8.5338  -8.4911  -7.2078  -7.1538  -6.1783  -6.1515
    -4.3459  -4.1925  -4.1777  -4.1240  -4.1047  -4.0728  -3.4742  -3.4446
    -3.3131  -3.1678  -3.1325  -3.0871  -3.0179  -2.8881  -0.8769  -0.8422
    -0.2877  -0.2753  -0.2155   0.0829   0.1373   0.2139   1.2266   1.5513
     2.6338   2.6556   3.0137   3.2121   3.9313   4.0252

          k = 0.1468 0.2937 0.0000 ( 95196 PWs)   bands (ev):

   -46.3520 -46.3520 -45.7493 -45.7493 -45.7477 -45.7477 -45.7470 -45.7470
   -45.7455 -45.7455  -8.4712  -8.2927  -7.4492  -7.2297  -6.4264  -6.3543
    -4.6032  -4.1386  -4.0397  -3.9286  -3.8625  -3.7140  -3.5006  -3.3869
    -3.2486  -3.2264  -2.9639  -2.9150  -2.8926  -2.7324  -1.1002  -0.8840
    -0.8150  -0.4653  -0.1680  -0.0400   0.0141   0.0558   1.2655   2.0863
     2.2932   2.6404   2.7274   3.4435   3.4728   3.7390

          k = 0.1468 0.2937 0.0962 ( 95169 PWs)   bands (ev):

   -46.3520 -46.3520 -45.7493 -45.7493 -45.7477 -45.7477 -45.7470 -45.7470
   -45.7455 -45.7455  -8.4631  -8.3022  -7.4399  -7.2423  -6.4238  -6.3586
    -4.5587  -4.1398  -4.0421  -3.9447  -3.8191  -3.7290  -3.5042  -3.3841
    -3.2836  -3.2356  -2.9901  -2.9391  -2.8282  -2.7887  -1.0948  -0.9336
    -0.7385  -0.4485  -0.1701  -0.0962  -0.0145   0.1731   1.2780   2.0642
     2.3174   2.5617   2.6860   3.3909   3.5831   3.7958

          k = 0.1468 0.2937 0.1924 ( 95180 PWs)   bands (ev):

   -46.3520 -46.3520 -45.7493 -45.7493 -45.7477 -45.7477 -45.7470 -45.7470
   -45.7455 -45.7455  -8.4398  -8.3285  -7.4131  -7.2766  -6.4160  -6.3704
    -4.4337  -4.1441  -4.0454  -3.9718  -3.7946  -3.6978  -3.5833  -3.3961
    -3.2647  -3.2495  -3.0722  -2.9323  -2.8971  -2.7701  -1.0949  -1.0297
    -0.5574  -0.4112  -0.1740  -0.1365  -0.0337   0.2719   1.3431   1.9667
     2.3454   2.4372   2.6733   3.2489   3.7959   3.8861

          k = 0.1468 0.2937 0.2885 ( 95179 PWs)   bands (ev):

   -46.3520 -46.3520 -45.7493 -45.7493 -45.7477 -45.7477 -45.7470 -45.7470
   -45.7455 -45.7455  -8.4052  -8.3655  -7.3721  -7.3235  -6.4029  -6.3866
    -4.2622  -4.1553  -4.0550  -4.0079  -3.8704  -3.7365  -3.4877  -3.4002
    -3.2896  -3.2294  -3.1575  -3.0393  -2.8389  -2.7678  -1.1037  -1.0927
    -0.4227  -0.3751  -0.1761  -0.1636   0.0461   0.2193   1.5136   1.7591
     2.3139   2.4012   2.8066   3.0436   3.9160   4.0063

          k = 0.1468 0.4405 0.0000 ( 95186 PWs)   bands (ev):

   -46.3520 -46.3520 -45.7488 -45.7488 -45.7482 -45.7482 -45.7465 -45.7465
   -45.7460 -45.7459  -8.2869  -8.1883  -7.5996  -7.4860  -6.5052  -6.4804
    -4.3955  -4.1339  -4.0723  -3.9943  -3.9143  -3.7830  -3.3266  -3.2741
    -3.2094  -3.1107  -3.0890  -2.9017  -2.3283  -2.1656  -1.4760  -1.2242
    -0.8878  -0.8512  -0.3487  -0.1610   0.0172   0.0348   1.6359   2.0297
     2.1681   2.2103   2.8179   3.1401   3.8826   4.0460

          k = 0.1468 0.4405 0.0962 ( 95154 PWs)   bands (ev):

   -46.3520 -46.3520 -45.7488 -45.7488 -45.7482 -45.7482 -45.7465 -45.7465
   -45.7460 -45.7459  -8.2810  -8.1917  -7.5976  -7.4948  -6.5045  -6.4821
    -4.3585  -4.1319  -4.0546  -3.9863  -3.9111  -3.7898  -3.3549  -3.2800
    -3.2112  -3.1201  -3.0976  -2.9447  -2.3079  -2.1615  -1.4675  -1.2310
    -0.9457  -0.8860  -0.2842  -0.1453   0.0267   0.0766   1.6805   2.0316
     2.1921   2.2380   2.7636   3.0571   3.8594   4.0165

          k = 0.1468 0.4405 0.1924 ( 95149 PWs)   bands (ev):

   -46.3520 -46.3520 -45.7488 -45.7488 -45.7482 -45.7482 -45.7465 -45.7465
   -45.7460 -45.7460  -8.2649  -8.2022  -7.5899  -7.5180  -6.5022  -6.4865
    -4.2682  -4.1454  -4.0216  -3.9220  -3.8846  -3.7975  -3.4546  -3.3171
    -3.2851  -3.2138  -3.0524  -2.9383  -2.2629  -2.1576  -1.4511  -1.2740
    -1.0352  -0.9584  -0.1791  -0.1333   0.0709   0.1995   1.7759   2.0211
     2.2470   2.2887   2.6626   2.8910   3.8365   3.9537

          k = 0.1468 0.4405 0.2885 ( 95127 PWs)   bands (ev):

   -46.3520 -46.3520 -45.7488 -45.7488 -45.7482 -45.7482 -45.7465 -45.7465
   -45.7460 -45.7460  -8.2427  -8.2201  -7.5729  -7.5470  -6.4980  -6.4923
    -4.1990  -4.1633  -3.9451  -3.9043  -3.8174  -3.7179  -3.6240  -3.4607
    -3.3235  -3.2978  -2.9623  -2.9188  -2.2165  -2.1653  -1.4264  -1.3596
    -1.0574  -1.0234  -0.1435  -0.1339   0.1955   0.2693   1.8721   1.9765
     2.2672   2.3046   2.6471   2.7594   3.8607   3.9156

          k = 0.2937 0.2937 0.0000 ( 95157 PWs)   bands (ev):

   -46.3520 -46.3520 -45.7490 -45.7490 -45.7474 -45.7474 -45.7473 -45.7473
   -45.7458 -45.7458  -8.3324  -8.1580  -7.5108  -7.2825  -6.7434  -6.7224
    -4.4736  -4.1619  -4.1103  -3.8175  -3.6310  -3.5144  -3.3227  -3.1711
    -3.0717  -3.0656  -2.9986  -2.9235  -2.8126  -2.7893  -1.0379  -1.0284
    -0.9398  -0.6413  -0.5353  -0.1592   0.1448   0.1892   1.2444   1.5922
     1.9573   2.2842   2.4435   3.3387   3.7110   4.0045

          k = 0.2937 0.2937 0.0962 ( 95170 PWs)   bands (ev):

   -46.3520 -46.3520 -45.7490 -45.7490 -45.7474 -45.7474 -45.7473 -45.7473
   -45.7458 -45.7458  -8.3244  -8.1673  -7.5008  -7.2954  -6.7432  -6.7240
    -4.4378  -4.1865  -4.1127  -3.7753  -3.5956  -3.5077  -3.3383  -3.2330
    -3.1116  -3.0168  -2.9706  -2.9209  -2.8538  -2.8170  -1.1564  -1.1309
    -0.7752  -0.6067  -0.5271  -0.1200   0.1561   0.1726   1.2988   1.6124
     2.0230   2.2853   2.3793   3.2604   3.6760   4.0092

          k = 0.2937 0.2937 0.1924 ( 95126 PWs)   bands (ev):

   -46.3520 -46.3520 -45.7490 -45.7490 -45.7474 -45.7474 -45.7473 -45.7473
   -45.7458 -45.7458  -8.3016  -8.1930  -7.4721  -7.3303  -6.7422  -6.7284
    -4.3546  -4.2327  -4.0926  -3.6565  -3.5978  -3.4893  -3.3704  -3.3086
    -3.1412  -3.0243  -2.9836  -2.9005  -2.8960  -2.8475  -1.2979  -1.2907
    -0.6328  -0.5253  -0.4455  -0.0678   0.1377   0.1614   1.4632   1.6726
     2.2019   2.2210   2.2418   3.0562   3.6726   3.9740

          k = 0.2937 0.2937 0.2885 ( 95137 PWs)   bands (ev):

   -46.3520 -46.3520 -45.7490 -45.7490 -45.7474 -45.7474 -45.7473 -45.7473
   -45.7458 -45.7458  -8.2678  -8.2291  -7.4289  -7.3784  -6.7391  -6.7341
    -4.2961  -4.2687  -3.9766  -3.7746  -3.4992  -3.4690  -3.3826  -3.2498
    -3.2295  -3.1812  -2.9449  -2.9038  -2.8627  -2.8598  -1.4004  -1.3878
    -0.5737  -0.5402  -0.2157  -0.0765   0.1123   0.1258   1.6901   1.7569
     2.0567   2.0868   2.4787   2.7789   3.7642   3.8825

          k = 0.2937 0.4405 0.0000 ( 95171 PWs)   bands (ev):

   -46.3520 -46.3520 -45.7484 -45.7484 -45.7479 -45.7479 -45.7468 -45.7468
   -45.7463 -45.7463  -8.1338  -8.0234  -7.6027  -7.4621  -6.9224  -6.9186
    -4.2702  -4.2562  -4.2336  -4.0194  -3.5139  -3.2940  -3.2656  -3.1476
    -3.0371  -2.9855  -2.8951  -2.8931  -2.2765  -2.1768  -1.4099  -1.2832
    -1.1027  -1.0548  -0.6393  -0.4446   0.2777   0.2928   1.3543   1.4298
     1.7597   1.9066   2.5609   2.9178   4.1545   4.2833

          k = 0.2937 0.4405 0.0962 ( 95132 PWs)   bands (ev):

   -46.3520 -46.3520 -45.7484 -45.7484 -45.7479 -45.7479 -45.7468 -45.7468
   -45.7463 -45.7463  -8.1275  -8.0273  -7.5986  -7.4713  -6.9232  -6.9199
    -4.3086  -4.2886  -4.1664  -3.9625  -3.4753  -3.2728  -3.2600  -3.1374
    -3.1016  -2.9893  -2.9558  -2.8985  -2.2707  -2.1745  -1.4451  -1.3127
    -1.1734  -1.1046  -0.5422  -0.3660   0.2734   0.2833   1.4259   1.4722
     1.8252   1.9673   2.4950   2.8486   4.0048   4.2086

          k = 0.2937 0.4405 0.1924 ( 95124 PWs)   bands (ev):

   -46.3520 -46.3520 -45.7484 -45.7484 -45.7479 -45.7479 -45.7468 -45.7468
   -45.7463 -45.7463  -8.1100  -8.0395  -7.5854  -7.4963  -6.9250  -6.9229
    -4.3524  -4.3427  -4.0279  -3.8242  -3.4367  -3.2574  -3.2521  -3.2077
    -3.1492  -3.0583  -2.9878  -2.9132  -2.2576  -2.1749  -1.5424  -1.4606
    -1.2065  -1.1590  -0.3670  -0.2423   0.2601   0.2678   1.5979   1.6216
     2.0007   2.0895   2.3163   2.6648   3.7739   3.9746

          k = 0.2937 0.4405 0.2885 ( 95083 PWs)   bands (ev):

   -46.3520 -46.3520 -45.7484 -45.7484 -45.7479 -45.7479 -45.7468 -45.7468
   -45.7463 -45.7463  -8.0854  -8.0600  -7.5614  -7.5294  -6.9261  -6.9253
    -4.3801  -4.3768  -3.8339  -3.6644  -3.5610  -3.3962  -3.2584  -3.2149
    -3.1505  -3.0188  -2.9979  -2.9310  -2.2383  -2.1878  -1.6247  -1.5981
    -1.1994  -1.1824  -0.2289  -0.1837   0.2471   0.2577   1.7979   1.8876
     2.0578   2.1030   2.2336   2.4442   3.6447   3.7349

          k = 0.4405 0.4405 0.0000 ( 95128 PWs)   bands (ev):

   -46.3520 -46.3520 -45.7479 -45.7479 -45.7474 -45.7474 -45.7473 -45.7473
   -45.7468 -45.7468  -7.9032  -7.7725  -7.6530  -7.4331  -7.3457  -7.2658
    -4.3892  -4.3806  -4.0790  -3.9120  -3.6877  -3.5311  -2.9592  -2.9050
    -2.8651  -2.8298  -2.3993  -2.3749  -2.1419  -2.1071  -1.5127  -1.4466
    -1.2239  -1.2007  -1.1316  -0.9598   0.4505   0.4560   1.2142   1.2319
     1.5128   1.5979   2.5430   2.6883   4.5316   4.6528

          k = 0.4405 0.4405 0.0962 ( 95150 PWs)   bands (ev):

   -46.3520 -46.3520 -45.7479 -45.7479 -45.7474 -45.7474 -45.7473 -45.7473
   -45.7468 -45.7468  -7.8964  -7.7784  -7.6433  -7.4454  -7.3430  -7.2715
    -4.4187  -4.4142  -4.0219  -3.8699  -3.6245  -3.4811  -3.0248  -2.9711
    -2.8629  -2.8315  -2.3993  -2.3748  -2.1474  -2.1049  -1.5171  -1.4619
    -1.4095  -1.3744  -0.9433  -0.8438   0.4455   0.4494   1.2933   1.3336
     1.5789   1.6728   2.4886   2.6357   4.2395   4.3829

          k = 0.4405 0.4405 0.1924 ( 95118 PWs)   bands (ev):

   -46.3520 -46.3520 -45.7479 -45.7479 -45.7474 -45.7474 -45.7473 -45.7473
   -45.7468 -45.7468  -7.8774  -7.7954  -7.6155  -7.4790  -7.3350  -7.2862
    -4.4739  -4.4724  -3.8806  -3.7496  -3.4886  -3.3653  -3.1858  -3.1376
    -2.8620  -2.8393  -2.3973  -2.3775  -2.1656  -2.1138  -1.6723  -1.6357
    -1.4679  -1.4349  -0.7850  -0.7246   0.4386   0.4398   1.5006   1.5911
     1.7588   1.8583   2.3334   2.4868   3.7971   3.9079

          k = 0.4405 0.4405 0.2885 ( 95128 PWs)   bands (ev):

   -46.3520 -46.3520 -45.7479 -45.7479 -45.7474 -45.7474 -45.7473 -45.7473
   -45.7468 -45.7468  -7.8503  -7.8209  -7.5739  -7.5252  -7.3218  -7.3047
    -4.5107  -4.5102  -3.6868  -3.5683  -3.4840  -3.3523  -3.2742  -3.2692
    -2.8632  -2.8550  -2.3904  -2.3828  -2.1841  -2.1563  -1.7966  -1.7797
    -1.4545  -1.4436  -0.6962  -0.6759   0.4357   0.4357   1.7693   1.8621
     2.0053   2.0197   2.1121   2.2650   3.4768   3.5289

     the Fermi energy is     0.7064 ev

!    total energy              =    -214.71040497 Ry
     estimated scf accuracy    <          5.1E-09 Ry
     smearing contrib. (-TS)   =       0.00001334 Ry
     internal energy E=F+TS    =    -214.71041831 Ry

     The total energy is F=E-TS. E is the sum of the following terms:
     one-electron contribution =     -86.22164222 Ry
     hartree contribution      =      43.62689508 Ry
     xc contribution           =     -68.50636754 Ry
     ewald contribution        =    -103.60930363 Ry

     convergence has been achieved in  12 iterations

     Forces acting on atoms (cartesian axes, Ry/au):

     atom    1 type  1   force =     0.00000000    0.00000000    0.00000000
     atom    2 type  1   force =     0.00000000    0.00000000    0.00000000
     atom    3 type  1   force =     0.00000000    0.00000000    0.00000000
     atom    4 type  1   force =     0.00000000    0.00000000    0.00000000
     atom    5 type  1   force =     0.00000000    0.00000000    0.00000000
     atom    6 type  1   force =     0.00000000    0.00000000    0.00000000
     atom    7 type  2   force =    -0.00231845    0.00231845    0.00000000
     atom    8 type  2   force =     0.00231845    0.00231845    0.00000000
     atom    9 type  2   force =     0.00231845    0.00231845   -0.00000000
     atom   10 type  2   force =    -0.00231845    0.00231845    0.00000000
     atom   11 type  2   force =     0.00231845   -0.00231845    0.00000000
     atom   12 type  2   force =     0.00231845   -0.00231845    0.00000000
     atom   13 type  2   force =    -0.00231845   -0.00231845    0.00000000
     atom   14 type  2   force =    -0.00231845   -0.00231845    0.00000000
     atom   15 type  2   force =     0.00000000    0.00000000    0.00000000
     atom   16 type  2   force =     0.00000000    0.00000000    0.00000000
     atom   17 type  3   force =    -0.00828674   -0.03361498    0.02813507
     atom   18 type  3   force =     0.00828674   -0.03361498   -0.02813507
     atom   19 type  3   force =     0.03361498    0.00828674   -0.02813507
     atom   20 type  3   force =     0.00828674   -0.03361498    0.02813507
     atom   21 type  3   force =     0.03361498    0.00828674    0.02813507
     atom   22 type  3   force =     0.00828674    0.03361498    0.02813507
     atom   23 type  3   force =    -0.03361498    0.00828674    0.02813507
     atom   24 type  3   force =     0.00828674    0.03361498   -0.02813507
     atom   25 type  3   force =    -0.03361498    0.00828674   -0.02813507
     atom   26 type  3   force =     0.03361498   -0.00828674    0.02813507
     atom   27 type  3   force =    -0.00828674   -0.03361498   -0.02813507
     atom   28 type  3   force =     0.03361498   -0.00828674   -0.02813507
     atom   29 type  3   force =    -0.00828674    0.03361498   -0.02813507
     atom   30 type  3   force =    -0.03361498   -0.00828674   -0.02813507
     atom   31 type  3   force =    -0.00828674    0.03361498    0.02813507
     atom   32 type  3   force =    -0.03361498   -0.00828674    0.02813507
     atom   33 type  3   force =    -0.03261006   -0.00628520    0.00000000
     atom   34 type  3   force =     0.03261006   -0.00628520   -0.00000000
     atom   35 type  3   force =     0.00628520    0.03261006    0.00000000
     atom   36 type  3   force =     0.03261006    0.00628520    0.00000000
     atom   37 type  3   force =    -0.00628520    0.03261006   -0.00000000
     atom   38 type  3   force =     0.00628520   -0.03261006   -0.00000000
     atom   39 type  3   force =    -0.03261006    0.00628520   -0.00000000
     atom   40 type  3   force =    -0.00628520   -0.03261006    0.00000000
     atom   41 type  3   force =     0.00000000    0.00000000   -0.05007932
     atom   42 type  3   force =     0.00000000    0.00000000    0.05007932
     atom   43 type  3   force =     0.00000000    0.00000000   -0.05007932
     atom   44 type  3   force =     0.00000000    0.00000000    0.05007932

     Total force =     0.225354     Total SCF correction =     0.000026


     Computing stress (Cartesian axis) and pressure

          total   stress  (Ry/bohr**3)                   (kbar)     P=     -156.04
  -0.00103583   0.00000000   0.00000000         -152.38        0.00        0.00
   0.00000000  -0.00103583   0.00000000            0.00     -152.38        0.00
   0.00000000   0.00000000  -0.00111054            0.00        0.00     -163.37

     Energy error            =      3.3E-01 Ry
     Gradient error          =      5.0E-02 Ry/Bohr
     Cell gradient error     =      1.6E+02 kbar

     number of scf cycles    =   2
     number of bfgs steps    =   1

     enthalpy           old  =    -214.3826653062 Ry
     enthalpy           new  =    -214.7104049744 Ry

     CASE: enthalpy          _new < enthalpy          _old


     WARNING: bfgs curvature condition failed, Theta= 0.887
     new trust radius        =       0.4711326236 bohr
     new conv_thr            =       0.0000000050 Ry

     new unit-cell volume =   2476.58032 a.u.^3 (   366.99134 Ang^3 )
     density =      0.73647 g/cm^3

CELL_PARAMETERS (alat= 12.61135185)
   0.932672988   0.000000000   0.000000000
   0.000000000   0.932672988   0.000000000
   0.000000000   0.000000000   1.419412717

ATOMIC_POSITIONS (crystal)
B             0.0000000000        0.5000000000        0.0000000000
B             0.5000000000        0.0000000000        0.5000000000
B             0.0000000000        0.5000000000        0.5000000000
B             0.5000000000        0.0000000000        0.0000000000
B             0.0000000000        0.0000000000        0.0000000000
B             0.5000000000        0.5000000000        0.5000000000
Li            0.2122110454        0.2877889546        0.2500000000
Li            0.2877889546        0.7877889546        0.2500000000
Li            0.2877889546        0.7877889546        0.7500000000
Li            0.2122110454        0.2877889546        0.7500000000
Li            0.7877889546        0.7122110454        0.2500000000
Li            0.7877889546        0.7122110454        0.7500000000
Li            0.7122110454        0.2122110454        0.2500000000
Li            0.7122110454        0.2122110454        0.7500000000
Li            0.0000000000        0.0000000000        0.5000000000
Li            0.5000000000        0.5000000000        0.0000000000
H             0.0420075817        0.6727277148        0.3864664923
H             0.4579924183        0.1727277148        0.1135335077
H             0.8272722852        0.4579924183        0.1135335077
H             0.4579924183        0.1727277148        0.8864664923
H             0.8272722852        0.4579924183        0.8864664923
H             0.9579924183        0.3272722852        0.3864664923
H             0.6727277148        0.9579924183        0.3864664923
H             0.9579924183        0.3272722852        0.6135335077
H             0.6727277148        0.9579924183        0.6135335077
H             0.3272722852        0.0420075817        0.3864664923
H             0.0420075817        0.6727277148        0.6135335077
H             0.3272722852        0.0420075817        0.6135335077
H             0.5420075817        0.8272722852        0.1135335077
H             0.1727277148        0.5420075817        0.1135335077
H             0.5420075817        0.8272722852        0.8864664923
H             0.1727277148        0.5420075817        0.8864664923
H             0.0680538591        0.2463923683        0.0000000000
H             0.4319461409        0.7463923683        0.5000000000
H             0.2536076317        0.4319461409        0.5000000000
H             0.9319461409        0.7536076317        0.0000000000
H             0.2463923683        0.9319461409       -0.0000000000
H             0.7536076317        0.0680538591       -0.0000000000
H             0.5680538591        0.2536076317        0.5000000000
H             0.7463923683        0.5680538591        0.5000000000
H             0.0000000000        0.0000000000        0.1635564371
H             0.5000000000        0.5000000000        0.3364435629
H             0.5000000000        0.5000000000        0.6635564371
H             0.0000000000        0.0000000000        0.8364435629



     Writing config-only to output data dir ./Li5B3H14_sod.save/
     NEW-OLD atomic charge density approx. for the potential
     extrapolated charge   66.08992, renormalised to   76.00000

     total cpu time spent up to now is      594.3 secs

     Self-consistent Calculation

     iteration #  1     ecut=   150.00 Ry     beta= 0.70
     Davidson diagonalization with overlap
     c_bands:  1 eigenvalues not converged
     c_bands:  1 eigenvalues not converged
     c_bands:  1 eigenvalues not converged
     c_bands:  2 eigenvalues not converged
     c_bands:  2 eigenvalues not converged
     c_bands:  1 eigenvalues not converged
     c_bands:  1 eigenvalues not converged
     c_bands:  2 eigenvalues not converged
     c_bands:  1 eigenvalues not converged
     c_bands:  2 eigenvalues not converged
     c_bands:  2 eigenvalues not converged
     c_bands:  1 eigenvalues not converged
     c_bands:  2 eigenvalues not converged
     ethr =  1.00E-06,  avg # of iterations = 16.9

     total cpu time spent up to now is      662.2 secs

     total energy              =    -214.41243787 Ry
     estimated scf accuracy    <       0.75132388 Ry

     iteration #  2     ecut=   150.00 Ry     beta= 0.70
     Davidson diagonalization with overlap
     ethr =  9.89E-04,  avg # of iterations =  3.0

     total cpu time spent up to now is      683.4 secs

     total energy              =    -215.00904599 Ry
     estimated scf accuracy    <       1.57450825 Ry

     iteration #  3     ecut=   150.00 Ry     beta= 0.70
     Davidson diagonalization with overlap
     ethr =  9.89E-04,  avg # of iterations =  2.0

     total cpu time spent up to now is      698.5 secs

     WARNING: integrated charge=    76.00043994, expected=    76.00000000

     total energy              =    -215.06774036 Ry
     estimated scf accuracy    <       0.22364200 Ry

     iteration #  4     ecut=   150.00 Ry     beta= 0.70
     Davidson diagonalization with overlap
     ethr =  2.94E-04,  avg # of iterations =  2.9

     total cpu time spent up to now is      714.8 secs

     WARNING: integrated charge=    76.00039679, expected=    76.00000000

     total energy              =    -215.10568050 Ry
     estimated scf accuracy    <       0.02014510 Ry

     iteration #  5     ecut=   150.00 Ry     beta= 0.70
     Davidson diagonalization with overlap
     c_bands:  1 eigenvalues not converged
     ethr =  2.65E-05,  avg # of iterations =  6.5

     total cpu time spent up to now is      739.2 secs

     WARNING: integrated charge=    76.00030168, expected=    76.00000000

     total energy              =    -215.11741002 Ry
[...]
    -3.8971  -3.8693  -3.8490  -3.5570  -2.8004  -2.7595  -2.5873  -2.4988
    -2.3654  -2.1064  -2.0244  -1.7945  -1.0586  -0.7625   0.1752   0.5570
     1.2543   1.3217   2.1599   2.2061   2.5324   2.7271   5.1269   5.8389
     6.0346   6.2138   6.4055   6.4168   6.6750   6.8935

          k = 0.0000 0.5040 0.2239 ( 57381 PWs)   bands (ev):

   -43.4782 -43.4782 -42.8880 -42.8879 -42.8848 -42.8847 -42.8749 -42.8749
   -42.8726 -42.8725  -8.5377  -8.4511  -7.4868  -7.3786  -5.5590  -5.5176
    -3.8900  -3.8568  -3.6953  -3.4074  -2.8214  -2.7915  -2.6651  -2.6215
    -2.5033  -2.2959  -1.9116  -1.7431  -0.9714  -0.7654   0.2342   0.5109
     1.2264   1.3212   2.0239   2.0411   2.7605   2.9831   5.2396   5.8258
     5.9265   6.0048   6.3813   6.4005   6.7658   6.7952

          k = 0.0000 0.5040 0.3359 ( 57372 PWs)   bands (ev):

   -43.4782 -43.4782 -42.8880 -42.8879 -42.8848 -42.8848 -42.8749 -42.8749
   -42.8725 -42.8725  -8.5067  -8.4754  -7.4640  -7.4251  -5.5484  -5.5334
    -3.8794  -3.8673  -3.4613  -3.3052  -2.8442  -2.7809  -2.7002  -2.6904
    -2.6724  -2.5729  -1.7746  -1.7115  -0.8744  -0.7996   0.3177   0.4204
     1.2303   1.2800   1.9460   1.9565   3.0052   3.1082   5.2988   5.4871
     5.9503   6.0171   6.3647   6.3776   6.8891   6.9435

          k = 0.1680 0.1680 0.0000 ( 57427 PWs)   bands (ev):

   -43.4783 -43.4782 -42.8921 -42.8921 -42.8795 -42.8794 -42.8792 -42.8791
   -42.8695 -42.8694  -8.9181  -8.6405  -7.0260  -6.5677  -5.5891  -5.4174
    -4.2920  -3.7484  -3.5526  -3.4222  -3.2872  -3.0838  -2.8680  -2.5034
    -2.4358  -2.3055  -2.1749  -1.9418  -1.5830  -1.4249   1.0492   1.1323
     1.2192   2.2935   2.5008   2.5767   2.7711   2.9033   4.3168   5.6330
     5.8519   5.8651   6.1668   6.3763   6.7590   6.8239

          k = 0.1680 0.1680 0.1120 ( 57406 PWs)   bands (ev):

   -43.4783 -43.4782 -42.8921 -42.8921 -42.8795 -42.8794 -42.8792 -42.8791
   -42.8695 -42.8694  -8.9058  -8.6560  -7.0073  -6.5959  -5.5850  -5.4291
    -4.2258  -3.7404  -3.5672  -3.4145  -3.2939  -3.0044  -2.9471  -2.4929
    -2.4529  -2.2913  -2.1844  -1.9588  -1.5889  -1.5235   1.0669   1.1486
     1.3719   2.3483   2.3656   2.5102   2.8280   2.9474   4.2618   5.5422
     5.7717   5.9069   6.0155   6.5823   6.7596   6.8881

          k = 0.1680 0.1680 0.2239 ( 57407 PWs)   bands (ev):

   -43.4783 -43.4782 -42.8921 -42.8921 -42.8795 -42.8794 -42.8792 -42.8791
   -42.8695 -42.8694  -8.8708  -8.6983  -6.9533  -6.6708  -5.5701  -5.4605
    -4.0401  -3.7174  -3.6004  -3.3926  -3.3172  -3.1444  -2.7893  -2.5540
    -2.5035  -2.1855  -2.1671  -1.9914  -1.7825  -1.6333   1.1478   1.2011
     1.7294   2.1807   2.3364   2.4899   2.8082   2.9518   4.2375   5.1974
     5.7558   5.8871   6.0638   6.6323   6.8617   7.0233

          k = 0.1680 0.1680 0.3359 ( 57388 PWs)   bands (ev):

   -43.4782 -43.4782 -42.8921 -42.8921 -42.8795 -42.8794 -42.8792 -42.8792
   -42.8695 -42.8694  -8.8181  -8.7567  -6.8703  -6.7701  -5.5413  -5.5018
    -3.7683  -3.6828  -3.6401  -3.4611  -3.3607  -3.3187  -2.5890  -2.5633
    -2.4804  -2.1564  -2.1285  -2.1126  -1.9100  -1.7470   1.2425   1.2609
     2.0710   2.0715   2.2801   2.6313   2.6712   2.7460   4.4382   4.7946
     5.7795   5.8184   6.2858   6.4978   6.9786   7.1045

          k = 0.1680 0.3360 0.0000 ( 57385 PWs)   bands (ev):

   -43.4783 -43.4782 -42.8901 -42.8901 -42.8814 -42.8813 -42.8778 -42.8777
   -42.8710 -42.8709  -8.7437  -8.4856  -7.2771  -6.8963  -5.8858  -5.7782
    -4.1303  -3.5492  -3.3851  -3.2558  -3.0284  -2.8852  -2.7560  -2.3578
    -2.2149  -2.2105  -1.9305  -1.8452  -1.8055  -1.5699   0.9946   1.0990
     1.2391   1.6590   2.1811   2.5332   2.5917   2.6253   4.4449   5.3682
     5.6602   6.1015   6.1899   6.3284   6.8813   7.0534

          k = 0.1680 0.3360 0.1120 ( 57393 PWs)   bands (ev):

   -43.4783 -43.4782 -42.8901 -42.8901 -42.8814 -42.8813 -42.8778 -42.8777
   -42.8710 -42.8709  -8.7320  -8.4996  -7.2618  -6.9195  -5.8835  -5.7858
    -4.0666  -3.5444  -3.3974  -3.1969  -3.0615  -2.9113  -2.7333  -2.3763
    -2.2515  -2.2124  -1.9839  -1.8339  -1.7388  -1.6485   0.9517   1.0558
     1.3834   1.6834   2.1906   2.3811   2.5446   2.8152   4.4725   5.3677
     5.7103   5.9511   6.0235   6.5415   6.8826   7.0690

          k = 0.1680 0.3360 0.2239 ( 57412 PWs)   bands (ev):

   -43.4783 -43.4782 -42.8901 -42.8901 -42.8813 -42.8813 -42.8778 -42.8777
   -42.8710 -42.8709  -8.6987  -8.5380  -7.2173  -6.9815  -5.8748  -5.8059
    -3.8887  -3.5298  -3.4190  -3.1946  -3.0157  -2.9412  -2.7753  -2.4099
    -2.2650  -2.2138  -2.0734  -1.8843  -1.7663  -1.6423   0.9110   0.9644
     1.6350   1.7409   2.2118   2.2783   2.4879   2.9390   4.5770   5.3230
     5.6868   5.7681   5.9721   6.7433   6.8740   7.0113

          k = 0.1680 0.3360 0.3359 ( 57374 PWs)   bands (ev):

   -43.4782 -43.4782 -42.8901 -42.8901 -42.8813 -42.8813 -42.8778 -42.8777
   -42.8710 -42.8709  -8.6491  -8.5917  -7.1482  -7.0644  -5.8571  -5.8322
    -3.6358  -3.5107  -3.4423  -3.3574  -3.0382  -2.9260  -2.6732  -2.4692
    -2.2777  -2.1951  -2.1500  -2.0615  -1.7082  -1.6151   0.8887   0.9001
     1.7616   1.8125   2.2149   2.2389   2.6032   2.8465   4.8009   5.1062
     5.5760   5.6887   6.2137   6.5460   6.9654   7.1417

          k = 0.1680 0.5040 0.0000 ( 57395 PWs)   bands (ev):

   -43.4782 -43.4782 -42.8873 -42.8873 -42.8842 -42.8841 -42.8756 -42.8755
   -42.8732 -42.8731  -8.4995  -8.3590  -7.4937  -7.3133  -5.9643  -5.9232
    -3.8770  -3.5638  -3.4075  -3.3200  -3.0968  -3.0175  -2.5056  -2.1820
    -2.1584  -2.0744  -2.0229  -1.7855  -1.0619  -0.7722   0.1871   0.5381
     1.1205   1.1917   2.0716   2.3368   2.5755   2.5921   4.8802   5.2983
     5.6355   5.7608   6.3433   6.7640   6.8303   7.1709

          k = 0.1680 0.5040 0.1120 ( 57391 PWs)   bands (ev):

   -43.4782 -43.4782 -42.8873 -42.8873 -42.8842 -42.8841 -42.8756 -42.8755
   -42.8732 -42.8731  -8.4910  -8.3636  -7.4914  -7.3281  -5.9644  -5.9270
    -3.8183  -3.5193  -3.4011  -3.3210  -3.1175  -3.0373  -2.5051  -2.2314
    -2.1680  -2.0560  -2.0416  -1.8350  -1.0324  -0.7686   0.1966   0.5241
     1.0684   1.1595   2.1379   2.3157   2.5871   2.6676   4.9502   5.3270
     5.6917   5.8330   6.2525   6.5518   6.8629   7.0904

          k = 0.1680 0.5040 0.2239 ( 57395 PWs)   bands (ev):

   -43.4782 -43.4782 -42.8873 -42.8873 -42.8842 -42.8841 -42.8756 -42.8755
   -42.8732 -42.8731  -8.4678  -8.3782  -7.4806  -7.3665  -5.9629  -5.9366
    -3.6627  -3.4635  -3.3510  -3.3200  -3.1215  -3.0602  -2.5965  -2.3365
    -2.2647  -2.1707  -1.9573  -1.8093  -0.9673  -0.7730   0.2198   0.4634
     0.9804   1.0822   2.2439   2.2964   2.6490   2.8308   5.1047   5.3795
     5.8510   5.9117   6.0284   6.3319   6.8594   6.9818

          k = 0.1680 0.5040 0.3359 ( 57374 PWs)   bands (ev):

   -43.4782 -43.4782 -42.8873 -42.8873 -42.8842 -42.8842 -42.8756 -42.8755
   -42.8731 -42.8731  -8.4358  -8.4034  -7.4550  -7.4140  -5.9575  -5.9480
    -3.4989  -3.4557  -3.3289  -3.3082  -3.0551  -2.9602  -2.7897  -2.5967
    -2.2945  -2.2399  -1.8386  -1.7784  -0.8918  -0.8046   0.2631   0.3583
     0.9525   1.0023   2.2787   2.2905   2.8101   2.9083   5.2776   5.4165
     5.7560   5.7823   6.0768   6.2730   6.9616   7.0360

          k = 0.3360 0.3360 0.0000 ( 57394 PWs)   bands (ev):

   -43.4783 -43.4782 -42.8883 -42.8882 -42.8802 -42.8801 -42.8793 -42.8792
   -42.8726 -42.8725  -8.5608  -8.3080  -7.3740  -6.9750  -6.3685  -6.3670
    -3.9697  -3.3670  -3.2113  -3.2103  -2.8667  -2.6808  -2.4909  -2.1355
    -2.0937  -2.0593  -1.8397  -1.8055  -1.6513  -1.6180   0.9276   1.0766
     1.1079   1.3464   1.5104   2.1979   2.7428   2.7762   4.3748   4.7927
     5.3123   5.8577   5.9588   6.5309   7.1499   7.2943

          k = 0.3360 0.3360 0.1120 ( 57411 PWs)   bands (ev):

   -43.4783 -43.4782 -42.8883 -42.8882 -42.8802 -42.8801 -42.8793 -42.8792
   -42.8726 -42.8725  -8.5493  -8.3217  -7.3573  -6.9987  -6.3709  -6.3686
    -3.9116  -3.4071  -3.2359  -3.1484  -2.8222  -2.6765  -2.4953  -2.2028
    -2.1217  -1.9782  -1.8416  -1.8116  -1.7412  -1.6210   0.8245   0.8427
     1.3134   1.4755   1.5124   2.2419   2.7390   2.7602   4.4512   4.8275
     5.4030   5.8753   5.8871   6.5221   7.0136   7.3233

          k = 0.3360 0.3360 0.2239 ( 57426 PWs)   bands (ev):

   -43.4783 -43.4782 -42.8883 -42.8882 -42.8802 -42.8801 -42.8793 -42.8792
   -42.8725 -42.8725  -8.5166  -8.3592  -7.3092  -7.0625  -6.3755  -6.3724
    -3.7586  -3.4750  -3.2744  -2.9806  -2.8261  -2.6708  -2.4979  -2.2793
    -2.1284  -1.9691  -1.8894  -1.8353  -1.8153  -1.6358   0.6294   0.6468
     1.3920   1.5089   1.8382   2.3164   2.6605   2.7532   4.6811   4.9256
     5.6366   5.6601   5.8217   6.6858   6.7729   7.2422

          k = 0.3360 0.3360 0.3359 ( 57414 PWs)   bands (ev):

   -43.4782 -43.4782 -42.8883 -42.8883 -42.8802 -42.8801 -42.8792 -42.8792
   -42.8725 -42.8725  -8.4679  -8.4118  -7.2358  -7.1482  -6.3780  -6.3765
    -3.5973  -3.5263  -3.2282  -3.0220  -2.7760  -2.6812  -2.4532  -2.2560
    -2.2127  -2.1458  -1.8851  -1.8685  -1.7234  -1.6645   0.5039   0.5176
     1.4521   1.4908   2.1876   2.3473   2.6023   2.6554   5.0036   5.0679
     5.4229   5.4984   6.0664   6.4572   7.0022   7.1516

          k = 0.3360 0.5040 0.0000 ( 57446 PWs)   bands (ev):

   -43.4782 -43.4782 -42.8856 -42.8855 -42.8826 -42.8825 -42.8774 -42.8773
   -42.8748 -42.8747  -8.2972  -8.1408  -7.5046  -7.2802  -6.6128  -6.5965
    -3.7201  -3.4671  -3.4218  -3.4124  -2.7201  -2.4185  -2.3702  -2.2617
    -1.9717  -1.7896  -1.7833  -1.6779  -0.9622  -0.7843   0.2769   0.4236
     0.8640   0.9479   1.4915   1.7825   2.8997   2.9071   4.5183   4.6306
     5.1806   5.3885   6.1144   6.5801   7.1223   7.5798

          k = 0.3360 0.5040 0.1120 ( 57433 PWs)   bands (ev):

   -43.4782 -43.4782 -42.8856 -42.8855 -42.8826 -42.8825 -42.8774 -42.8773
   -42.8748 -42.8747  -8.2881  -8.1461  -7.4982  -7.2950  -6.6155  -6.6009
    -3.6841  -3.5342  -3.4178  -3.3287  -2.6620  -2.3707  -2.3668  -2.2545
    -2.0541  -1.8770  -1.7853  -1.6880  -0.9552  -0.7817   0.2463   0.4055
     0.7585   0.8497   1.6459   1.8950   2.8836   2.8896   4.6197   4.6972
     5.2752   5.4969   6.0466   6.4989   7.0101   7.4690

          k = 0.3360 0.5040 0.2239 ( 57417 PWs)   bands (ev):

   -43.4782 -43.4782 -42.8856 -42.8855 -42.8825 -42.8825 -42.8773 -42.8773
   -42.8748 -42.8748  -8.2629  -8.1630  -7.4771  -7.3349  -6.6209  -6.6109
    -3.6509  -3.6143  -3.3382  -3.1399  -2.6097  -2.3827  -2.3041  -2.2304
    -2.1935  -2.0432  -1.7933  -1.7168  -0.9392  -0.7911   0.1631   0.2981
     0.6434   0.7256   1.9188   2.0850   2.8361   2.8581   4.8844   4.8996
     5.5254   5.7251   5.8526   6.2724   6.8826   7.2557

          k = 0.3360 0.5040 0.3359 ( 57426 PWs)   bands (ev):

   -43.4782 -43.4782 -42.8855 -42.8855 -42.8825 -42.8825 -42.8773 -42.8773
   -42.8748 -42.8748  -8.2279  -8.1917  -7.4391  -7.3879  -6.6235  -6.6199
    -3.6674  -3.6626  -3.1090  -2.9124  -2.7581  -2.5530  -2.3265  -2.2541
    -2.1428  -2.0464  -1.7984  -1.7566  -0.9099  -0.8292   0.0973   0.1521
     0.6313   0.6606   2.1347   2.1930   2.7991   2.8194   5.1704   5.2899
     5.5187   5.7038   5.8475   6.0799   6.8852   7.0599

          k = 0.5040 0.5040 0.0000 ( 57446 PWs)   bands (ev):

   -43.4782 -43.4782 -42.8830 -42.8829 -42.8808 -42.8806 -42.8793 -42.8793
   -42.8772 -42.8771  -7.9889  -7.8189  -7.5896  -7.2399  -7.2178  -7.0561
    -3.6356  -3.6169  -3.4862  -3.3030  -2.9081  -2.7242  -1.8771  -1.8072
    -1.6572  -1.5915  -1.2677  -1.2267  -0.6906  -0.6701   0.0492   0.1542
     0.7113   0.7497   0.7987   1.0360   3.1315   3.1329   4.4205   4.4288
     4.9432   5.0367   6.0405   6.2236   7.4589   7.5953

          k = 0.5040 0.5040 0.1120 ( 57434 PWs)   bands (ev):

   -43.4782 -43.4782 -42.8830 -42.8829 -42.8807 -42.8806 -42.8793 -42.8793
   -42.8772 -42.8771  -7.9795  -7.8259  -7.5739  -7.2397  -7.2339  -7.0695
    -3.6872  -3.6818  -3.3977  -3.2398  -2.8148  -2.6445  -1.9718  -1.9108
    -1.6449  -1.5896  -1.2733  -1.2307  -0.7014  -0.6627   0.0651   0.1532
     0.3974   0.4585   1.1284   1.2502   3.1164   3.1180   4.5441   4.5614
     5.0318   5.1425   5.9954   6.1816   7.3385   7.5665

          k = 0.5040 0.5040 0.2239 ( 57428 PWs)   bands (ev):

   -43.4782 -43.4782 -42.8830 -42.8830 -42.8807 -42.8807 -42.8793 -42.8793
   -42.8772 -42.8772  -7.9537  -7.8467  -7.5286  -7.2985  -7.2159  -7.1040
    -3.7766  -3.7740  -3.2019  -3.0604  -2.6324  -2.4692  -2.1968  -2.1602
    -1.6297  -1.5901  -1.2847  -1.2477  -0.7332  -0.6711   0.0683   0.1109
     0.1211   0.1715   1.4020   1.4768   3.0879   3.0928   4.8457   4.9400
     5.2661   5.4195   5.8554   6.0583   7.0953   7.4103

          k = 0.5040 0.5040 0.3359 ( 57459 PWs)   bands (ev):

   -43.4782 -43.4782 -42.8830 -42.8830 -42.8807 -42.8807 -42.8793 -42.8793
   -42.8772 -42.8772  -7.9173  -7.8789  -7.4598  -7.3780  -7.1862  -7.1468
    -3.8327  -3.8315  -2.9320  -2.7924  -2.6504  -2.4755  -2.3267  -2.3156
    -1.6186  -1.6034  -1.2879  -1.2726  -0.7605  -0.7264  -0.0838  -0.0576
     0.1321   0.1496   1.5596   1.5850   3.0726   3.0753   5.2361   5.4239
     5.5558   5.6086   5.6949   5.8596   6.6951   6.8300

     the Fermi energy is     3.8076 ev

!    total energy              =    -215.47902718 Ry
     estimated scf accuracy    <          4.7E-11 Ry
     smearing contrib. (-TS)   =       0.00000000 Ry
     internal energy E=F+TS    =    -215.47902718 Ry

     The total energy is F=E-TS. E is the sum of the following terms:
     one-electron contribution =     -65.15445220 Ry
     hartree contribution      =      39.85677376 Ry
     xc contribution           =     -72.07483225 Ry
     ewald contribution        =    -118.10651649 Ry

     convergence has been achieved in  11 iterations

     Forces acting on atoms (cartesian axes, Ry/au):

     atom    1 type  1   force =     0.00000000    0.00000000   -0.00000000
     atom    2 type  1   force =     0.00000000    0.00000000   -0.00000000
     atom    3 type  1   force =     0.00000000    0.00000000   -0.00000000
     atom    4 type  1   force =     0.00000000    0.00000000   -0.00000000
     atom    5 type  1   force =     0.00000000    0.00000000   -0.00000000
     atom    6 type  1   force =     0.00000000    0.00000000   -0.00000000
     atom    7 type  2   force =    -0.00026889    0.00026889    0.00000000
     atom    8 type  2   force =     0.00026889    0.00026889    0.00000000
     atom    9 type  2   force =     0.00026889    0.00026889    0.00000000
     atom   10 type  2   force =    -0.00026889    0.00026889   -0.00000000
     atom   11 type  2   force =     0.00026889   -0.00026889    0.00000000
     atom   12 type  2   force =     0.00026889   -0.00026889   -0.00000000
     atom   13 type  2   force =    -0.00026889   -0.00026889    0.00000000
     atom   14 type  2   force =    -0.00026889   -0.00026889    0.00000000
     atom   15 type  2   force =     0.00000000    0.00000000    0.00000000
     atom   16 type  2   force =     0.00000000    0.00000000    0.00000000
     atom   17 type  3   force =     0.00062455    0.00031365    0.00045969
     atom   18 type  3   force =    -0.00062455    0.00031365   -0.00045969
     atom   19 type  3   force =    -0.00031365   -0.00062455   -0.00045969
     atom   20 type  3   force =    -0.00062455    0.00031365    0.00045969
     atom   21 type  3   force =    -0.00031365   -0.00062455    0.00045969
     atom   22 type  3   force =    -0.00062455   -0.00031365    0.00045969
     atom   23 type  3   force =     0.00031365   -0.00062455    0.00045969
     atom   24 type  3   force =    -0.00062455   -0.00031365   -0.00045969
     atom   25 type  3   force =     0.00031365   -0.00062455   -0.00045969
     atom   26 type  3   force =    -0.00031365    0.00062455    0.00045969
     atom   27 type  3   force =     0.00062455    0.00031365   -0.00045969
     atom   28 type  3   force =    -0.00031365    0.00062455   -0.00045969
     atom   29 type  3   force =     0.00062455   -0.00031365   -0.00045969
     atom   30 type  3   force =     0.00031365    0.00062455   -0.00045969
     atom   31 type  3   force =     0.00062455   -0.00031365    0.00045969
     atom   32 type  3   force =     0.00031365    0.00062455    0.00045969
     atom   33 type  3   force =     0.00057396    0.00041279    0.00000000
     atom   34 type  3   force =    -0.00057396    0.00041279   -0.00000000
     atom   35 type  3   force =    -0.00041279   -0.00057396    0.00000000
     atom   36 type  3   force =    -0.00057396   -0.00041279   -0.00000000
     atom   37 type  3   force =     0.00041279   -0.00057396    0.00000000
     atom   38 type  3   force =    -0.00041279    0.00057396    0.00000000
     atom   39 type  3   force =     0.00057396   -0.00041279    0.00000000
     atom   40 type  3   force =     0.00041279    0.00057396    0.00000000
     atom   41 type  3   force =     0.00000000    0.00000000   -0.00033678
     atom   42 type  3   force =     0.00000000    0.00000000    0.00033678
     atom   43 type  3   force =     0.00000000    0.00000000   -0.00033678
     atom   44 type  3   force =     0.00000000    0.00000000    0.00033678

     Total force =     0.004099     Total SCF correction =     0.000003


     Computing stress (Cartesian axis) and pressure

          total   stress  (Ry/bohr**3)                   (kbar)     P=       -0.25
  -0.00000241   0.00000000   0.00000000           -0.35        0.00        0.00
   0.00000000  -0.00000241   0.00000000            0.00       -0.35        0.00
   0.00000000   0.00000000  -0.00000022            0.00        0.00       -0.03


     Writing all to output data dir ./Li5B3H14_sod.save/
 
     init_run     :     22.28s CPU     22.73s WALL (       2 calls)
     electrons    :   4763.58s CPU   4901.55s WALL (      23 calls)
     update_pot   :     63.55s CPU     63.87s WALL (      21 calls)
     forces       :     98.00s CPU     99.76s WALL (      23 calls)
     stress       :    500.92s CPU    506.33s WALL (      23 calls)

     Called by init_run:
     wfcinit      :     18.05s CPU     18.36s WALL (       2 calls)
     potinit      :      1.51s CPU      1.54s WALL (       2 calls)
     hinit0       :      1.95s CPU      1.98s WALL (       2 calls)

     Called by electrons:
     c_bands      :   4216.78s CPU   4329.36s WALL (     242 calls)
     sum_band     :    522.38s CPU    532.54s WALL (     242 calls)
     v_of_rho     :     10.98s CPU     11.10s WALL (     254 calls)
     newd         :     11.99s CPU     16.10s WALL (     254 calls)
     mix_rho      :      2.67s CPU      2.72s WALL (     242 calls)

     Called by c_bands:
     init_us_2    :    112.00s CPU    113.46s WALL (   21280 calls)
     init_us_2:cp :    111.80s CPU    113.34s WALL (   21280 calls)
     cegterg      :   3959.04s CPU   3998.80s WALL (    9680 calls)

     Called by *egterg:
     cdiaghg      :    116.28s CPU    117.15s WALL (   46534 calls)
     h_psi        :   2734.54s CPU   2764.62s WALL (   47894 calls)
     s_psi        :    302.19s CPU    304.25s WALL (   47894 calls)
     g_psi        :     26.57s CPU     26.92s WALL (   38134 calls)

     Called by h_psi:
     h_psi:calbec :    290.90s CPU    293.20s WALL (   47894 calls)
     vloc_psi     :   2099.27s CPU   2124.49s WALL (   47894 calls)
     add_vuspsi   :    297.00s CPU    298.95s WALL (   47894 calls)

     General routines
     calbec       :    415.38s CPU    418.61s WALL (   62174 calls)
     fft          :      6.40s CPU      6.49s WALL (    3401 calls)
     ffts         :      0.39s CPU      0.40s WALL (     242 calls)
     fftw         :   2129.15s CPU   2154.90s WALL ( 3285902 calls)
 
     Parallel routines
 
     PWSCF        :      1h30m CPU      1h33m WALL

 
   This run was terminated on:  22:20:45   8Dec2023            

=------------------------------------------------------------------------------=
   JOB DONE.
=------------------------------------------------------------------------------=
