
     Program PWSCF v.7.1 starts on  8Dec2023 at 13:36:41 

     This program is part of the open-source Quantum ESPRESSO suite
     for quantum simulation of materials; please cite
         "P. Giannozzi et al., J. Phys.:Condens. Matter 21 395502 (2009);
         "P. Giannozzi et al., J. Phys.:Condens. Matter 29 465901 (2017);
         "P. Giannozzi et al., J. Chem. Phys. 152 154105 (2020);
          URL http://www.quantum-espresso.org", 
     in publications or presentations arising from this work. More details at
     http://www.quantum-espresso.org/quote

     Parallel version (MPI & OpenMP), running on      28 processor cores
     Number of MPI processes:                28
     Threads/MPI process:                     1

     MPI processes distributed on     1 nodes
     120476 MiB available memory on the printing compute node when the environment starts
 
     Reading input from LiBH4_opt.in

     Current dimensions of program PWSCF are:
     Max number of different atomic species (ntypx) = 10
     Max number of k-points (npk) =  40000
     Max angular momentum in pseudopotentials (lmaxx) =  4

     IMPORTANT: XC functional enforced from input :
     Exchange-correlation= PBE
                           (   1   4   3   4   0   0   0)
     Any further DFT definition will be discarded
     Please, verify this is what you really want

     Message from routine setup:
     using ibrav=0 with symmetry is DISCOURAGED, use correct ibrav instead
 
     R & G space division:  proc/nbgrp/npool/nimage =      28
     Subspace diagonalization in iterative solution of the eigenvalue problem:
     a serial algorithm will be used

 
     Parallelization info
     --------------------
     sticks:   dense  smooth     PW     G-vecs:    dense   smooth      PW
     Min         149     149     40                12519    12519    1744
     Max         150     150     41                12524    12524    1749
     Sum        4199    4199   1135               350607   350607   48875
 
     Using Slab Decomposition
 


     bravais-lattice index     =            0
     lattice parameter (alat)  =       8.1587  a.u.
     unit-cell volume          =    1412.9038 (a.u.)^3
     number of atoms/cell      =           24
     number of atomic types    =            3
     number of electrons       =        40.00
     number of Kohn-Sham states=           24
     kinetic-energy cutoff     =     150.0000  Ry
     charge density cutoff     =     600.0000  Ry
     scf convergence threshold =      1.0E-08
     mixing beta               =       0.7000
     number of iterations used =            8  plain     mixing
     energy convergence thresh.=      1.0E-04
     force convergence thresh. =      1.0E-03
     press convergence thresh. =      5.0E-01
     Exchange-correlation= PBE
                           (   1   4   3   4   0   0   0)
     nstep                     =           50


     celldm(1)=   8.158741  celldm(2)=   0.000000  celldm(3)=   0.000000
     celldm(4)=   0.000000  celldm(5)=   0.000000  celldm(6)=   0.000000

     crystal axes: (cart. coord. in units of alat)
               a(1) = (   1.000000   0.000000   0.000000 )  
               a(2) = (   0.000000   1.322774   0.000000 )  
               a(3) = (   0.000000   0.000000   1.966788 )  

     reciprocal axes: (cart. coord. in units 2 pi/alat)
               b(1) = (  1.000000  0.000000  0.000000 )  
               b(2) = (  0.000000  0.755987  0.000000 )  
               b(3) = (  0.000000  0.000000  0.508443 )  


     PseudoPot. # 1 for B  read from file:
     /scratch/antwerpen/209/vsc20922/pseudos/b_pbe_v1.4.uspp.F.UPF
     MD5 check sum: cc6de2960df11db49a60e589f9ebb39b
     Pseudo is Ultrasoft + core correction, Zval =  3.0
     Generated by new atomic code, or converted to UPF format
     Using radial grid of  781 points,  4 beta functions with: 
                l(1) =   0
                l(2) =   0
                l(3) =   1
                l(4) =   1
     Q(r) pseudized with  8 coefficients,  rinner =    1.100   1.100   1.100


     PseudoPot. # 2 for Li read from file:
     /scratch/antwerpen/209/vsc20922/pseudos/li_pbe_v1.4.uspp.F.UPF
     MD5 check sum: e912e257baa3777c20ea3d68f190483c
     Pseudo is Ultrasoft, Zval =  3.0
     Generated by new atomic code, or converted to UPF format
     Using radial grid of  751 points,  5 beta functions with: 
                l(1) =   0
                l(2) =   0
                l(3) =   0
                l(4) =   1
                l(5) =   1
     Q(r) pseudized with 10 coefficients,  rinner =    1.150   1.150   1.150


     PseudoPot. # 3 for H  read from file:
     /scratch/antwerpen/209/vsc20922/pseudos/H.pbe-rrkjus_psl.1.0.0.UPF
     MD5 check sum: f52b6d4d1c606e5624b1dc7b2218f220
     Pseudo is Ultrasoft, Zval =  1.0
     Generated using "atomic" code by A. Dal Corso  v.5.1
     Using radial grid of  929 points,  2 beta functions with: 
                l(1) =   0
                l(2) =   0
     Q(r) pseudized with 0 coefficients 


     atomic species   valence    mass     pseudopotential
        B              3.00    10.81350     B ( 1.00)
        Li             3.00     6.96750     Li( 1.00)
        H              1.00     1.00750     H ( 1.00)

      8 Sym. Ops., with inversion, found ( 6 have fractional translation)



   Cartesian axes

     site n.     atom                  positions (alat units)
         1           B   tau(   1) = (   0.2500000   0.4596049   0.7140636  )
         2           B   tau(   2) = (   0.2500000   0.2017819   1.6974577  )
         3           B   tau(   3) = (   0.7500000   0.8631686   1.2527246  )
         4           B   tau(   4) = (   0.7500000   1.1209917   0.2693305  )
         5           Li  tau(   5) = (   0.7500000   1.2166070   1.6805722  )
         6           Li  tau(   6) = (   0.7500000   0.7675533   0.6971781  )
         7           Li  tau(   7) = (   0.2500000   0.1061665   0.2862160  )
         8           Li  tau(   8) = (   0.2500000   0.5552202   1.2696101  )
         9           H   tau(   9) = (   0.4792671   0.4213414   0.5532959  )
        10           H   tau(  10) = (   0.0207329   0.2400453   1.5366900  )
        11           H   tau(  11) = (   0.9792671   0.9014321   1.4134923  )
        12           H   tau(  12) = (   0.5207329   1.0827282   0.4300982  )
        13           H   tau(  13) = (   0.5207329   0.9014321   1.4134923  )
        14           H   tau(  14) = (   0.9792671   1.0827282   0.4300982  )
        15           H   tau(  15) = (   0.0207329   0.4213414   0.5532959  )
        16           H   tau(  16) = (   0.4792671   0.2400453   1.5366900  )
        17           H   tau(  17) = (   0.2500000   0.2694227   0.9219347  )
        18           H   tau(  18) = (   0.2500000   0.3919641   1.9053289  )
        19           H   tau(  19) = (   0.7500000   1.0533508   1.0448535  )
        20           H   tau(  20) = (   0.7500000   0.9308095   0.0614594  )
        21           H   tau(  21) = (   0.2500000   0.7255815   0.8103523  )
        22           H   tau(  22) = (   0.2500000   1.2585788   1.7937464  )
        23           H   tau(  23) = (   0.7500000   0.5971920   1.1564359  )
        24           H   tau(  24) = (   0.7500000   0.0641948   0.1730418  )

     number of k points=    64  Marzari-Vanderbilt smearing, width (Ry)=  0.0050
                       cart. coord. in units 2pi/alat
        k(    1) = (   0.0000000   0.0000000   0.0000000), wk =   0.0058309
        k(    2) = (   0.0000000   0.0000000   0.0726347), wk =   0.0116618
        k(    3) = (   0.0000000   0.0000000   0.1452695), wk =   0.0116618
        k(    4) = (   0.0000000   0.0000000   0.2179042), wk =   0.0116618
        k(    5) = (   0.0000000   0.1079982   0.0000000), wk =   0.0116618
        k(    6) = (   0.0000000   0.1079982   0.0726347), wk =   0.0233236
        k(    7) = (   0.0000000   0.1079982   0.1452695), wk =   0.0233236
        k(    8) = (   0.0000000   0.1079982   0.2179042), wk =   0.0233236
        k(    9) = (   0.0000000   0.2159964   0.0000000), wk =   0.0116618
        k(   10) = (   0.0000000   0.2159964   0.0726347), wk =   0.0233236
        k(   11) = (   0.0000000   0.2159964   0.1452695), wk =   0.0233236
        k(   12) = (   0.0000000   0.2159964   0.2179042), wk =   0.0233236
        k(   13) = (   0.0000000   0.3239946   0.0000000), wk =   0.0116618
        k(   14) = (   0.0000000   0.3239946   0.0726347), wk =   0.0233236
        k(   15) = (   0.0000000   0.3239946   0.1452695), wk =   0.0233236
        k(   16) = (   0.0000000   0.3239946   0.2179042), wk =   0.0233236
        k(   17) = (   0.1428571   0.0000000   0.0000000), wk =   0.0116618
        k(   18) = (   0.1428571   0.0000000   0.0726347), wk =   0.0233236
        k(   19) = (   0.1428571   0.0000000   0.1452695), wk =   0.0233236
        k(   20) = (   0.1428571   0.0000000   0.2179042), wk =   0.0233236
        k(   21) = (   0.1428571   0.1079982   0.0000000), wk =   0.0233236
        k(   22) = (   0.1428571   0.1079982   0.0726347), wk =   0.0466472
        k(   23) = (   0.1428571   0.1079982   0.1452695), wk =   0.0466472
        k(   24) = (   0.1428571   0.1079982   0.2179042), wk =   0.0466472
        k(   25) = (   0.1428571   0.2159964   0.0000000), wk =   0.0233236
        k(   26) = (   0.1428571   0.2159964   0.0726347), wk =   0.0466472
        k(   27) = (   0.1428571   0.2159964   0.1452695), wk =   0.0466472
        k(   28) = (   0.1428571   0.2159964   0.2179042), wk =   0.0466472
        k(   29) = (   0.1428571   0.3239946   0.0000000), wk =   0.0233236
        k(   30) = (   0.1428571   0.3239946   0.0726347), wk =   0.0466472
        k(   31) = (   0.1428571   0.3239946   0.1452695), wk =   0.0466472
        k(   32) = (   0.1428571   0.3239946   0.2179042), wk =   0.0466472
        k(   33) = (   0.2857143   0.0000000   0.0000000), wk =   0.0116618
        k(   34) = (   0.2857143   0.0000000   0.0726347), wk =   0.0233236
        k(   35) = (   0.2857143   0.0000000   0.1452695), wk =   0.0233236
        k(   36) = (   0.2857143   0.0000000   0.2179042), wk =   0.0233236
        k(   37) = (   0.2857143   0.1079982   0.0000000), wk =   0.0233236
        k(   38) = (   0.2857143   0.1079982   0.0726347), wk =   0.0466472
        k(   39) = (   0.2857143   0.1079982   0.1452695), wk =   0.0466472
        k(   40) = (   0.2857143   0.1079982   0.2179042), wk =   0.0466472
        k(   41) = (   0.2857143   0.2159964   0.0000000), wk =   0.0233236
        k(   42) = (   0.2857143   0.2159964   0.0726347), wk =   0.0466472
        k(   43) = (   0.2857143   0.2159964   0.1452695), wk =   0.0466472
        k(   44) = (   0.2857143   0.2159964   0.2179042), wk =   0.0466472
        k(   45) = (   0.2857143   0.3239946   0.0000000), wk =   0.0233236
        k(   46) = (   0.2857143   0.3239946   0.0726347), wk =   0.0466472
        k(   47) = (   0.2857143   0.3239946   0.1452695), wk =   0.0466472
        k(   48) = (   0.2857143   0.3239946   0.2179042), wk =   0.0466472
        k(   49) = (   0.4285714   0.0000000   0.0000000), wk =   0.0116618
        k(   50) = (   0.4285714   0.0000000   0.0726347), wk =   0.0233236
        k(   51) = (   0.4285714   0.0000000   0.1452695), wk =   0.0233236
        k(   52) = (   0.4285714   0.0000000   0.2179042), wk =   0.0233236
        k(   53) = (   0.4285714   0.1079982   0.0000000), wk =   0.0233236
        k(   54) = (   0.4285714   0.1079982   0.0726347), wk =   0.0466472
        k(   55) = (   0.4285714   0.1079982   0.1452695), wk =   0.0466472
        k(   56) = (   0.4285714   0.1079982   0.2179042), wk =   0.0466472
        k(   57) = (   0.4285714   0.2159964   0.0000000), wk =   0.0233236
        k(   58) = (   0.4285714   0.2159964   0.0726347), wk =   0.0466472
        k(   59) = (   0.4285714   0.2159964   0.1452695), wk =   0.0466472
        k(   60) = (   0.4285714   0.2159964   0.2179042), wk =   0.0466472
        k(   61) = (   0.4285714   0.3239946   0.0000000), wk =   0.0233236
        k(   62) = (   0.4285714   0.3239946   0.0726347), wk =   0.0466472
        k(   63) = (   0.4285714   0.3239946   0.1452695), wk =   0.0466472
        k(   64) = (   0.4285714   0.3239946   0.2179042), wk =   0.0466472

     Dense  grid:   350607 G-vectors     FFT dimensions: (  64,  90, 128)

     Estimated max dynamical RAM per process >      71.48 MB

     Estimated total dynamical RAM >       1.95 GB

     Initial potential from superposition of free atoms

     starting charge      38.1958, renormalised to      40.0000
     Starting wfcs are   52 randomized atomic wfcs

     total cpu time spent up to now is        5.2 secs

     Self-consistent Calculation

     iteration #  1     ecut=   150.00 Ry     beta= 0.70
     Davidson diagonalization with overlap
     ethr =  1.00E-02,  avg # of iterations =  2.3

     total cpu time spent up to now is       11.4 secs

     total energy              =    -102.44480804 Ry
     estimated scf accuracy    <       1.41905958 Ry

     iteration #  2     ecut=   150.00 Ry     beta= 0.70
     Davidson diagonalization with overlap
     ethr =  3.55E-03,  avg # of iterations =  2.0

     total cpu time spent up to now is       17.0 secs

     total energy              =    -102.70863948 Ry
     estimated scf accuracy    <       0.09988695 Ry

     iteration #  3     ecut=   150.00 Ry     beta= 0.70
     Davidson diagonalization with overlap
     ethr =  2.50E-04,  avg # of iterations =  2.5

     total cpu time spent up to now is       22.3 secs

     total energy              =    -102.72089030 Ry
     estimated scf accuracy    <       0.00721474 Ry

     iteration #  4     ecut=   150.00 Ry     beta= 0.70
     Davidson diagonalization with overlap
     c_bands:  1 eigenvalues not converged
     c_bands:  2 eigenvalues not converged
     ethr =  1.80E-05,  avg # of iterations = 10.3

     total cpu time spent up to now is       32.2 secs

     total energy              =    -102.72541730 Ry
     estimated scf accuracy    <       0.00226778 Ry

     iteration #  5     ecut=   150.00 Ry     beta= 0.70
     Davidson diagonalization with overlap
     ethr =  5.67E-06,  avg # of iterations =  5.6

     total cpu time spent up to now is       39.0 secs

     total energy              =    -102.72608685 Ry
     estimated scf accuracy    <       0.00051454 Ry

     iteration #  6     ecut=   150.00 Ry     beta= 0.70
     Davidson diagonalization with overlap
     c_bands:  1 eigenvalues not converged
     c_bands:  1 eigenvalues not converged
     ethr =  1.29E-06,  avg # of iterations =  6.1

     total cpu time spent up to now is       45.5 secs

     total energy              =    -102.72618938 Ry
     estimated scf accuracy    <       0.00000923 Ry

     iteration #  7     ecut=   150.00 Ry     beta= 0.70
     Davidson diagonalization with overlap
     ethr =  2.31E-08,  avg # of iterations =  5.9

     total cpu time spent up to now is       54.3 secs

     total energy              =    -102.72619984 Ry
     estimated scf accuracy    <       0.00000548 Ry

     iteration #  8     ecut=   150.00 Ry     beta= 0.70
     Davidson diagonalization with overlap
     ethr =  1.37E-08,  avg # of iterations =  2.0

     total cpu time spent up to now is       59.5 secs

     total energy              =    -102.72620053 Ry
     estimated scf accuracy    <       0.00000021 Ry

     iteration #  9     ecut=   150.00 Ry     beta= 0.70
     Davidson diagonalization with overlap
     ethr =  5.14E-10,  avg # of iterations =  5.0

     total cpu time spent up to now is       67.0 secs

     End of self-consistent calculation

          k = 0.0000 0.0000 0.0000 ( 43751 PWs)   bands (ev):

   -45.6340 -45.6333 -45.6320 -45.6314  -9.6546  -8.9046  -8.8581  -8.2695
    -4.7820  -4.2895  -4.0239  -3.9766  -3.7858  -3.7486  -3.4426  -3.1974
    -3.0808  -3.0355  -2.8723  -2.6979   3.6383   4.4439   4.7392   4.9756

          k = 0.0000 0.0000 0.0726 ( 43771 PWs)   bands (ev):

   -45.6340 -45.6334 -45.6320 -45.6314  -9.6354  -9.0528  -8.7163  -8.2793
    -4.7860  -4.3925  -3.9296  -3.9059  -3.7725  -3.7204  -3.4662  -3.2373
    -3.1112  -3.0671  -2.8570  -2.7029   3.6787   4.4928   4.6407   5.1008

          k = 0.0000 0.0000 0.1453 ( 43752 PWs)   bands (ev):

   -45.6339 -45.6335 -45.6319 -45.6315  -9.5786  -9.2161  -8.5718  -8.3105
    -4.7827  -4.5433  -3.8117  -3.7341  -3.7136  -3.6361  -3.5262  -3.3373
    -3.2026  -3.1579  -2.8206  -2.7180   3.7919   4.4168   4.6364   5.1719

          k = 0.0000 0.0000 0.2179 ( 43816 PWs)   bands (ev):

   -45.6338 -45.6337 -45.6317 -45.6316  -9.4866  -9.3637  -8.4540  -8.3673
    -4.7472  -4.6668  -3.6745  -3.6689  -3.6013  -3.5744  -3.5016  -3.4180
    -3.3419  -3.2943  -2.7793  -2.7437   3.9625   4.1762   4.8623   5.1428

          k = 0.0000 0.1080 0.0000 ( 43804 PWs)   bands (ev):

   -45.6340 -45.6333 -45.6320 -45.6314  -9.6166  -8.9331  -8.8325  -8.3107
    -4.8595  -4.4630  -4.0139  -3.8520  -3.7468  -3.5943  -3.4088  -3.1863
    -3.1090  -3.0592  -2.9258  -2.7377   3.7543   4.5713   4.8049   5.1351

          k = 0.0000 0.1080 0.0726 ( 43788 PWs)   bands (ev):

   -45.6340 -45.6334 -45.6320 -45.6314  -9.5981  -9.0486  -8.7244  -8.3205
    -4.8597  -4.4546  -4.0908  -3.7339  -3.7255  -3.5726  -3.4329  -3.2246
    -3.1959  -3.0264  -2.9093  -2.7433   3.7929   4.6055   4.7274   5.1210

          k = 0.0000 0.1080 0.1453 ( 43833 PWs)   bands (ev):

   -45.6339 -45.6335 -45.6319 -45.6315  -9.5434  -9.1991  -8.5950  -8.3512
    -4.8382  -4.5230  -4.0479  -3.6965  -3.5824  -3.5073  -3.4929  -3.3721
    -3.2595  -3.0485  -2.8703  -2.7601   3.9015   4.4976   4.7406   5.2028

          k = 0.0000 0.1080 0.2179 ( 43815 PWs)   bands (ev):

   -45.6338 -45.6337 -45.6317 -45.6316  -9.4552  -9.3381  -8.4872  -8.4059
    -4.7701  -4.6557  -3.8685  -3.6547  -3.6386  -3.5671  -3.4696  -3.3938
    -3.2544  -3.1351  -2.8264  -2.7882   4.0650   4.2697   4.9153   5.1313

          k = 0.0000 0.2160 0.0000 ( 43808 PWs)   bands (ev):

   -45.6339 -45.6334 -45.6319 -45.6315  -9.5086  -9.0234  -8.7607  -8.4126
    -4.9864  -4.7283  -3.9098  -3.6811  -3.6347  -3.3375  -3.3125  -3.2872
    -3.1848  -3.0696  -3.0302  -2.8480   4.0752   4.8857   4.9314   5.1682

          k = 0.0000 0.2160 0.0726 ( 43825 PWs)   bands (ev):

   -45.6339 -45.6335 -45.6319 -45.6315  -9.4925  -9.0715  -8.7213  -8.4229
    -4.9703  -4.6709  -4.0461  -3.6232  -3.5824  -3.4004  -3.3402  -3.3126
    -3.1582  -3.0473  -3.0106  -2.8548   4.1066   4.8708   4.8991   5.1689

          k = 0.0000 0.2160 0.1453 ( 43824 PWs)   bands (ev):

   -45.6338 -45.6335 -45.6318 -45.6316  -9.4455  -9.1699  -8.6459  -8.4538
    -4.9041  -4.5619  -4.2135  -3.6762  -3.5897  -3.4020  -3.3933  -3.2642
    -3.1584  -3.0002  -2.9938  -2.8749   4.1953   4.6996   4.9296   5.2752

          k = 0.0000 0.2160 0.2179 ( 43848 PWs)   bands (ev):

   -45.6337 -45.6336 -45.6317 -45.6316  -9.3711  -9.2758  -8.5698  -8.5039
    -4.7775  -4.6177  -4.1497  -3.9199  -3.5376  -3.4723  -3.3186  -3.2644
    -3.1026  -3.0260  -2.9505  -2.9075   4.3304   4.5024   5.0241   5.1624

          k = 0.0000 0.3240 0.0000 ( 43814 PWs)   bands (ev):

   -45.6338 -45.6336 -45.6318 -45.6316  -9.3493  -9.1728  -8.6564  -8.5357
    -5.0280  -4.9366  -3.7280  -3.5601  -3.4649  -3.4416  -3.3366  -3.2640
    -3.1689  -3.1059  -3.0165  -3.0031   4.4964   4.8414   5.0932   5.3427

          k = 0.0000 0.3240 0.0726 ( 43850 PWs)   bands (ev):

   -45.6337 -45.6336 -45.6318 -45.6316  -9.3392  -9.1785  -8.6573  -8.5461
    -4.9907  -4.8824  -3.8816  -3.6723  -3.4570  -3.3719  -3.2809  -3.2398
    -3.1542  -3.1022  -3.0129  -3.0097   4.5106   4.8226   5.0890   5.3460

          k = 0.0000 0.3240 0.1453 ( 43820 PWs)   bands (ev):

   -45.6337 -45.6336 -45.6317 -45.6317  -9.3111  -9.1973  -8.6544  -8.5738
    -4.8779  -4.7407  -4.1232  -3.9167  -3.4346  -3.3173  -3.2513  -3.1540
    -3.1238  -3.0884  -3.0284  -3.0029   4.5500   4.7652   5.0983   5.3023

          k = 0.0000 0.3240 0.2179 ( 43812 PWs)   bands (ev):

   -45.6337 -45.6337 -45.6317 -45.6317  -9.2714  -9.2300  -8.6386  -8.6088
    -4.7070  -4.5981  -4.3056  -4.1727  -3.4005  -3.3596  -3.1807  -3.1465
    -3.0895  -3.0563  -3.0406  -3.0052   4.6098   4.6856   5.1457   5.2213

          k = 0.1429 0.0000 0.0000 ( 43782 PWs)   bands (ev):

   -45.6339 -45.6332 -45.6321 -45.6315  -9.5704  -8.8559  -8.8112  -8.2836
    -4.6875  -4.4027  -4.2167  -4.0148  -3.7407  -3.6476  -3.5929  -3.4020
    -3.3212  -3.0052  -2.8396  -2.7588   3.8633   4.5634   4.6568   4.9996

          k = 0.1429 0.0000 0.0726 ( 43815 PWs)   bands (ev):

   -45.6339 -45.6333 -45.6320 -45.6315  -9.5518  -8.9944  -8.6807  -8.2919
    -4.6925  -4.4390  -4.1973  -3.9702  -3.7463  -3.6698  -3.5571  -3.3611
    -3.3401  -3.0615  -2.8335  -2.7746   3.9042   4.5874   4.6690   4.8546

          k = 0.1429 0.0000 0.1453 ( 43816 PWs)   bands (ev):

   -45.6338 -45.6334 -45.6319 -45.6316  -9.4969  -9.1492  -8.5491  -8.3185
    -4.6922  -4.5196  -4.1460  -3.9058  -3.7668  -3.6322  -3.4866  -3.3890
    -3.2978  -3.1858  -2.8380  -2.8133   4.0179   4.6165   4.6470   4.6994

          k = 0.1429 0.0000 0.2179 ( 43798 PWs)   bands (ev):

   -45.6337 -45.6335 -45.6318 -45.6317  -9.4083  -9.2902  -8.4437  -8.3676
    -4.6645  -4.6034  -4.0697  -3.9767  -3.6441  -3.5413  -3.5172  -3.4311
    -3.2784  -3.2709  -2.8521  -2.8478   4.1846   4.3876   4.7058   4.7230

          k = 0.1429 0.1080 0.0000 ( 43830 PWs)   bands (ev):

   -45.6339 -45.6333 -45.6321 -45.6315  -9.5337  -8.8826  -8.7872  -8.3187
    -4.7700  -4.4047  -4.3866  -3.8686  -3.6473  -3.6396  -3.5189  -3.4921
    -3.2584  -3.0261  -2.8838  -2.7612   3.9821   4.5366   4.9174   5.0909

          k = 0.1429 0.1080 0.0726 ( 43818 PWs)   bands (ev):

   -45.6338 -45.6333 -45.6320 -45.6315  -9.5158  -8.9906  -8.6879  -8.3271
    -4.7697  -4.4252  -4.3464  -3.8868  -3.6909  -3.6197  -3.4894  -3.4590
    -3.2638  -3.0650  -2.8759  -2.7776   4.0209   4.5757   4.9116   4.9522

          k = 0.1429 0.1080 0.1453 ( 43823 PWs)   bands (ev):

   -45.6338 -45.6334 -45.6319 -45.6316  -9.4631  -9.1330  -8.5700  -8.3536
    -4.7504  -4.5003  -4.2389  -3.9118  -3.7478  -3.5851  -3.4662  -3.4159
    -3.2668  -3.1153  -2.8765  -2.8208   4.1292   4.6752   4.7139   4.9247

          k = 0.1429 0.1080 0.2179 ( 43813 PWs)   bands (ev):

   -45.6337 -45.6335 -45.6318 -45.6317  -9.3781  -9.2657  -8.4732  -8.4013
    -4.6928  -4.6015  -4.1132  -3.9939  -3.6928  -3.5887  -3.4884  -3.4544
    -3.1982  -3.1404  -2.8846  -2.8680   4.2888   4.4845   4.8108   4.8983

          k = 0.1429 0.2160 0.0000 ( 43841 PWs)   bands (ev):

   -45.6338 -45.6333 -45.6320 -45.6316  -9.4297  -8.9676  -8.7204  -8.4067
    -4.8977  -4.6603  -4.3248  -3.7743  -3.6554  -3.5705  -3.4603  -3.3113
    -3.1936  -3.0746  -2.9898  -2.8099   4.3100   4.7193   5.2553   5.2635

          k = 0.1429 0.2160 0.0726 ( 43827 PWs)   bands (ev):

   -45.6337 -45.6334 -45.6319 -45.6316  -9.4142  -9.0127  -8.6845  -8.4158
    -4.8822  -4.6067  -4.3488  -3.8349  -3.6823  -3.5394  -3.4728  -3.2949
    -3.1923  -3.0869  -2.9733  -2.8154   4.3424   4.7735   5.1405   5.3086

          k = 0.1429 0.2160 0.1453 ( 43826 PWs)   bands (ev):

   -45.6337 -45.6334 -45.6319 -45.6316  -9.3689  -9.1056  -8.6159  -8.4431
    -4.8225  -4.4906  -4.4098  -3.9486  -3.7175  -3.5637  -3.4607  -3.3234
    -3.1412  -3.0716  -2.9576  -2.8395   4.4334   4.8783   5.0007   5.2971

          k = 0.1429 0.2160 0.2179 ( 43819 PWs)   bands (ev):

   -45.6336 -45.6335 -45.6318 -45.6317  -9.2975  -9.2063  -8.5470  -8.4878
    -4.7133  -4.5758  -4.2769  -4.0980  -3.7035  -3.6376  -3.4280  -3.3834
    -3.0663  -3.0497  -2.9390  -2.8884   4.5693   4.7356   5.1527   5.2783

          k = 0.1429 0.3240 0.0000 ( 43812 PWs)   bands (ev):

   -45.6336 -45.6335 -45.6318 -45.6317  -9.2770  -9.1089  -8.6244  -8.5153
    -4.9407  -4.8565  -4.1906  -3.9895  -3.5369  -3.4920  -3.3129  -3.2134
    -3.1642  -3.0874  -3.0638  -2.9288   4.7317   4.9569   5.3258   5.3896

          k = 0.1429 0.3240 0.0726 ( 43813 PWs)   bands (ev):

   -45.6336 -45.6335 -45.6318 -45.6317  -9.2673  -9.1143  -8.6253  -8.5248
    -4.9071  -4.8084  -4.2183  -4.0228  -3.5803  -3.4920  -3.3595  -3.2486
    -3.1322  -3.0852  -3.0165  -2.9091   4.7519   4.9840   5.3267   5.4256

          k = 0.1429 0.3240 0.1453 ( 43787 PWs)   bands (ev):

   -45.6336 -45.6335 -45.6318 -45.6317  -9.2404  -9.1319  -8.6230  -8.5499
    -4.8068  -4.6798  -4.3107  -4.1272  -3.6205  -3.5019  -3.4523  -3.3348
    -3.0604  -3.0426  -2.9634  -2.8871   4.8055   5.0017   5.3880   5.5026

          k = 0.1429 0.3240 0.2179 ( 43832 PWs)   bands (ev):

   -45.6336 -45.6335 -45.6318 -45.6318  -9.2024  -9.1629  -8.6089  -8.5818
    -4.6542  -4.5254  -4.4396  -4.2927  -3.6071  -3.5442  -3.4793  -3.4196
    -3.0072  -3.0043  -2.9256  -2.8943   4.8776   4.9520   5.5075   5.5685

          k = 0.2857 0.0000 0.0000 ( 43796 PWs)   bands (ev):

   -45.6335 -45.6330 -45.6322 -45.6318  -9.3312  -8.7359  -8.6999  -8.3760
    -4.7715  -4.4363  -4.2664  -4.0833  -4.0614  -3.7335  -3.6980  -3.6536
    -3.4740  -2.9975  -2.9778  -2.9684   4.2962   4.4370   4.6497   4.8163

          k = 0.2857 0.0000 0.0726 ( 43812 PWs)   bands (ev):

   -45.6335 -45.6330 -45.6322 -45.6318  -9.3147  -8.8428  -8.6062  -8.3790
    -4.7527  -4.4408  -4.2752  -4.0902  -4.0748  -3.7516  -3.7014  -3.5910
    -3.4447  -3.1028  -2.9731  -2.9325   4.3213   4.4386   4.6569   4.8276

          k = 0.2857 0.0000 0.1453 ( 43822 PWs)   bands (ev):

   -45.6334 -45.6331 -45.6321 -45.6319  -9.2663  -8.9686  -8.5179  -8.3898
    -4.6976  -4.4366  -4.3494  -4.1670  -3.9874  -3.7831  -3.6765  -3.4820
    -3.3917  -3.2640  -2.9831  -2.9330   4.3826   4.4432   4.6779   4.8358

          k = 0.2857 0.0000 0.2179 ( 43837 PWs)   bands (ev):

   -45.6333 -45.6332 -45.6320 -45.6319  -9.1887  -9.0871  -8.4538  -8.4128
    -4.6106  -4.5030  -4.3475  -4.2640  -3.8804  -3.8183  -3.5963  -3.4443
    -3.3929  -3.3627  -2.9846  -2.9629   4.4354   4.4483   4.7255   4.7972

          k = 0.2857 0.1080 0.0000 ( 43848 PWs)   bands (ev):

   -45.6334 -45.6330 -45.6322 -45.6318  -9.2991  -8.7571  -8.6815  -8.3923
    -4.8016  -4.4850  -4.3713  -4.0832  -4.0257  -3.9250  -3.6283  -3.4918
    -3.3908  -3.1255  -2.9850  -2.8533   4.3902   4.5402   4.7121   4.9619

          k = 0.2857 0.1080 0.0726 ( 43825 PWs)   bands (ev):

   -45.6334 -45.6331 -45.6322 -45.6318  -9.2833  -8.8401  -8.6114  -8.3957
    -4.7851  -4.4933  -4.3455  -4.1780  -3.9475  -3.9207  -3.6393  -3.4973
    -3.3549  -3.1491  -2.9983  -2.8667   4.4113   4.5620   4.7268   4.9735

          k = 0.2857 0.1080 0.1453 ( 43825 PWs)   bands (ev):

   -45.6334 -45.6331 -45.6321 -45.6319  -9.2369  -8.9554  -8.5321  -8.4076
    -4.7384  -4.5073  -4.3500  -4.2145  -3.9341  -3.9093  -3.6308  -3.4506
    -3.3266  -3.2179  -3.0097  -2.9075   4.4717   4.6073   4.7614   4.9722

          k = 0.2857 0.1080 0.2179 ( 43827 PWs)   bands (ev):

   -45.6333 -45.6332 -45.6320 -45.6319  -9.1629  -9.0665  -8.4721  -8.4316
    -4.6664  -4.5768  -4.3167  -4.2417  -3.9409  -3.9203  -3.5533  -3.4395
    -3.3299  -3.2686  -2.9986  -2.9606   4.5532   4.6140   4.8243   4.9139

          k = 0.2857 0.2160 0.0000 ( 43825 PWs)   bands (ev):

   -45.6334 -45.6331 -45.6321 -45.6319  -9.2090  -8.8251  -8.6317  -8.4355
    -4.8259  -4.5931  -4.5275  -4.3029  -4.0228  -3.8494  -3.5078  -3.3800
    -3.2497  -3.2415  -2.9871  -2.7809   4.6478   4.7913   4.9668   5.3032

          k = 0.2857 0.2160 0.0726 ( 43836 PWs)   bands (ev):

   -45.6334 -45.6331 -45.6321 -45.6319  -9.1954  -8.8596  -8.6082  -8.4404
    -4.8165  -4.6087  -4.4876  -4.3022  -4.0469  -3.8312  -3.5265  -3.3896
    -3.2508  -3.2198  -2.9942  -2.8041   4.6789   4.8343   4.9931   5.3327

          k = 0.2857 0.2160 0.1453 ( 43852 PWs)   bands (ev):

   -45.6333 -45.6332 -45.6321 -45.6319  -9.1560  -8.9337  -8.5633  -8.4558
    -4.7893  -4.6344  -4.4154  -4.2959  -4.0575  -3.8566  -3.5686  -3.3583
    -3.2801  -3.1681  -3.0079  -2.8671   4.7740   4.9346   5.0476   5.3492

          k = 0.2857 0.2160 0.2179 ( 43852 PWs)   bands (ev):

   -45.6333 -45.6332 -45.6320 -45.6320  -9.0944  -9.0171  -8.5191  -8.4824
    -4.7434  -4.6845  -4.3361  -4.2922  -4.0307  -3.9499  -3.5406  -3.4306
    -3.2163  -3.1333  -3.0107  -2.9477   4.9101   4.9995   5.1115   5.2403

          k = 0.2857 0.3240 0.0000 ( 43869 PWs)   bands (ev):

   -45.6333 -45.6332 -45.6321 -45.6320  -9.0792  -8.9397  -8.5644  -8.4954
    -4.7604  -4.6602  -4.6421  -4.5718  -3.9090  -3.8227  -3.4446  -3.4110
    -3.2299  -3.1852  -2.9103  -2.8057   4.9585   5.0556   5.3233   5.5123

          k = 0.2857 0.3240 0.0726 ( 43843 PWs)   bands (ev):

   -45.6333 -45.6332 -45.6320 -45.6320  -9.0708  -8.9436  -8.5663  -8.5019
    -4.7715  -4.6931  -4.5873  -4.5252  -3.9482  -3.8410  -3.4327  -3.3562
    -3.2634  -3.2172  -2.9078  -2.8184   5.0063   5.1062   5.3579   5.5544

          k = 0.2857 0.3240 0.1453 ( 43862 PWs)   bands (ev):

   -45.6333 -45.6332 -45.6320 -45.6320  -9.0475  -8.9570  -8.5673  -8.5193
    -4.7775  -4.7211  -4.4989  -4.4481  -3.9918  -3.8824  -3.4836  -3.3747
    -3.2324  -3.1824  -2.9247  -2.8643   5.1368   5.2288   5.4433   5.6440

          k = 0.2857 0.3240 0.2179 ( 43861 PWs)   bands (ev):

   -45.6333 -45.6332 -45.6320 -45.6320  -9.0149  -8.9819  -8.5595  -8.5414
    -4.7653  -4.7438  -4.4268  -4.4070  -3.9742  -3.9190  -3.5542  -3.4976
    -3.1137  -3.0699  -2.9826  -2.9439   5.2949   5.3389   5.5271   5.6091

          k = 0.4286 0.0000 0.0000 ( 43882 PWs)   bands (ev):

   -45.6329 -45.6327 -45.6324 -45.6323  -8.9835  -8.6231  -8.6225  -8.6077
    -4.7839  -4.5472  -4.5181  -4.4239  -3.9302  -3.6741  -3.6739  -3.6580
    -3.4606  -3.4265  -3.0808  -3.0766   4.1315   4.2508   5.1138   5.1234

          k = 0.4286 0.0000 0.0726 ( 43854 PWs)   bands (ev):

   -45.6329 -45.6327 -45.6324 -45.6323  -8.9714  -8.6709  -8.6180  -8.5795
    -4.7685  -4.5582  -4.4781  -4.4155  -3.9839  -3.7061  -3.7045  -3.5982
    -3.4703  -3.3859  -3.1413  -3.0490   4.1775   4.2983   4.9355   5.2623

          k = 0.4286 0.0000 0.1453 ( 43796 PWs)   bands (ev):

   -45.6329 -45.6328 -45.6324 -45.6323  -8.9360  -8.7396  -8.6043  -8.5663
    -4.7247  -4.5673  -4.4142  -4.3939  -4.0457  -3.8163  -3.7336  -3.5264
    -3.4744  -3.3011  -3.2090  -3.0656   4.3051   4.4366   4.7849   5.1833

          k = 0.4286 0.0000 0.2179 ( 43812 PWs)   bands (ev):

   -45.6328 -45.6328 -45.6324 -45.6323  -8.8812  -8.8130  -8.5863  -8.5710
    -4.6620  -4.6006  -4.3726  -4.3719  -4.0313  -3.9399  -3.7100  -3.6254
    -3.3615  -3.2758  -3.2079  -3.1236   4.4771   4.6424   4.6560   4.9307

          k = 0.4286 0.1080 0.0000 ( 43832 PWs)   bands (ev):

   -45.6329 -45.6327 -45.6324 -45.6323  -8.9618  -8.6501  -8.5998  -8.5978
    -4.8521  -4.6328  -4.4742  -4.3988  -4.0451  -3.8795  -3.6847  -3.5738
    -3.3764  -3.3221  -3.0653  -3.0129   4.2747   4.3538   5.2308   5.2326

          k = 0.4286 0.1080 0.0726 ( 43856 PWs)   bands (ev):

   -45.6329 -45.6327 -45.6324 -45.6323  -8.9502  -8.6744  -8.6132  -8.5743
    -4.8406  -4.6190  -4.4812  -4.3886  -4.0987  -3.8173  -3.7131  -3.5179
    -3.4160  -3.3138  -3.1119  -3.0068   4.3187   4.3989   5.0521   5.3832

          k = 0.4286 0.1080 0.1453 ( 43833 PWs)   bands (ev):

   -45.6329 -45.6328 -45.6324 -45.6323  -8.9166  -8.7329  -8.6037  -8.5650
    -4.8034  -4.6026  -4.5010  -4.3860  -4.1091  -3.7947  -3.7117  -3.5046
    -3.3774  -3.3319  -3.1820  -3.0368   4.4400   4.5313   4.9080   5.2823

          k = 0.4286 0.1080 0.2179 ( 43802 PWs)   bands (ev):

   -45.6328 -45.6328 -45.6324 -45.6323  -8.8646  -8.8004  -8.5867  -8.5712
    -4.7386  -4.6564  -4.4743  -4.4203  -4.0194  -3.8808  -3.6683  -3.5455
    -3.3611  -3.2617  -3.2165  -3.1111   4.6042   4.7324   4.7805   5.0176

          k = 0.4286 0.2160 0.0000 ( 43858 PWs)   bands (ev):

   -45.6329 -45.6328 -45.6324 -45.6323  -8.9029  -8.6885  -8.5811  -8.5749
    -4.9631  -4.7962  -4.4052  -4.3899  -4.2128  -4.0014  -3.7075  -3.7006
    -3.2234  -3.1067  -3.0481  -2.9085   4.6478   4.6633   5.4414   5.4810

          k = 0.4286 0.2160 0.0726 ( 43865 PWs)   bands (ev):

   -45.6329 -45.6328 -45.6324 -45.6323  -8.8930  -8.6962  -8.5957  -8.5646
    -4.9548  -4.7864  -4.4529  -4.4253  -4.2019  -3.9011  -3.7631  -3.5737
    -3.2869  -3.1169  -3.0839  -2.9278   4.6864   4.7025   5.3188   5.6487

          k = 0.4286 0.2160 0.1453 ( 43860 PWs)   bands (ev):

   -45.6328 -45.6328 -45.6324 -45.6323  -8.8647  -8.7252  -8.6003  -8.5641
    -4.9244  -4.7647  -4.5762  -4.4866  -4.1031  -3.7585  -3.7189  -3.4402
    -3.3733  -3.2217  -3.1416  -2.9902   4.7936   4.8179   5.2130   5.5292

          k = 0.4286 0.2160 0.2179 ( 43849 PWs)   bands (ev):

   -45.6328 -45.6328 -45.6324 -45.6324  -8.8220  -8.7719  -8.5897  -8.5745
    -4.8644  -4.7864  -4.6254  -4.5675  -3.9455  -3.7856  -3.5844  -3.4418
    -3.3482  -3.2450  -3.2298  -3.0950   4.9387   4.9957   5.1068   5.2648

          k = 0.4286 0.3240 0.0000 ( 43896 PWs)   bands (ev):

   -45.6328 -45.6328 -45.6324 -45.6324  -8.8240  -8.7471  -8.5645  -8.5615
    -5.0072  -4.9441  -4.4366  -4.4116  -4.1795  -4.0603  -3.7926  -3.7629
    -3.1167  -3.0605  -2.9395  -2.8710   5.0331   5.0472   5.5432   5.6521

          k = 0.4286 0.3240 0.0726 ( 43872 PWs)   bands (ev):

   -45.6328 -45.6328 -45.6324 -45.6324  -8.8173  -8.7458  -8.5737  -8.5619
    -5.0005  -4.9372  -4.4934  -4.4867  -4.1262  -3.9881  -3.7600  -3.6714
    -3.1675  -3.1005  -2.9648  -2.9007   5.0669   5.0783   5.5450   5.7360

          k = 0.4286 0.3240 0.1453 ( 43880 PWs)   bands (ev):

   -45.6328 -45.6328 -45.6324 -45.6324  -8.7991  -8.7453  -8.5871  -8.5709
    -4.9758  -4.9165  -4.6251  -4.5931  -3.9973  -3.8614  -3.6244  -3.5128
    -3.2832  -3.2069  -3.0482  -2.9850   5.1571   5.1708   5.5277   5.7193

          k = 0.4286 0.3240 0.2179 ( 43863 PWs)   bands (ev):

   -45.6328 -45.6328 -45.6324 -45.6324  -8.7749  -8.7542  -8.5921  -8.5842
    -4.9309  -4.8986  -4.7135  -4.6890  -3.8398  -3.7626  -3.5054  -3.4343
    -3.3233  -3.2688  -3.1766  -3.1124   5.2714   5.2940   5.4775   5.5623

     the Fermi energy is    -0.1750 ev

!    total energy              =    -102.72620068 Ry
     estimated scf accuracy    <          5.8E-09 Ry
     smearing contrib. (-TS)   =       0.00000000 Ry
     internal energy E=F+TS    =    -102.72620068 Ry

     The total energy is F=E-TS. E is the sum of the following terms:
     one-electron contribution =     -57.01083927 Ry
     hartree contribution      =      31.30036594 Ry
     xc contribution           =     -37.21879598 Ry
     ewald contribution        =     -39.79693137 Ry

     convergence has been achieved in   9 iterations

     Forces acting on atoms (cartesian axes, Ry/au):

     atom    1 type  1   force =    -0.00000000    0.00055495    0.00117744
     atom    2 type  1   force =     0.00000000   -0.00055495    0.00117744
     atom    3 type  1   force =    -0.00000000   -0.00055495   -0.00117744
     atom    4 type  1   force =     0.00000000    0.00055495   -0.00117744
     atom    5 type  2   force =    -0.00000000   -0.00025709    0.00140891
     atom    6 type  2   force =     0.00000000    0.00025709    0.00140891
     atom    7 type  2   force =    -0.00000000    0.00025709   -0.00140891
     atom    8 type  2   force =     0.00000000   -0.00025709   -0.00140891
     atom    9 type  3   force =     0.00319436   -0.00080517   -0.00189470
     atom   10 type  3   force =    -0.00319436    0.00080517   -0.00189470
     atom   11 type  3   force =     0.00319436    0.00080517    0.00189470
     atom   12 type  3   force =    -0.00319436   -0.00080517    0.00189470
     atom   13 type  3   force =    -0.00319436    0.00080517    0.00189470
     atom   14 type  3   force =     0.00319436   -0.00080517    0.00189470
     atom   15 type  3   force =    -0.00319436   -0.00080517   -0.00189470
     atom   16 type  3   force =     0.00319436    0.00080517   -0.00189470
     atom   17 type  3   force =    -0.00000000   -0.00279242    0.00220964
     atom   18 type  3   force =     0.00000000    0.00279242    0.00220964
     atom   19 type  3   force =    -0.00000000    0.00279242   -0.00220964
     atom   20 type  3   force =     0.00000000   -0.00279242   -0.00220964
     atom   21 type  3   force =    -0.00000000    0.00344048    0.00083123
     atom   22 type  3   force =     0.00000000   -0.00344048    0.00083123
     atom   23 type  3   force =     0.00000000   -0.00344048   -0.00083123
     atom   24 type  3   force =     0.00000000    0.00344048   -0.00083123

     Total force =     0.015210     Total SCF correction =     0.000043


     Computing stress (Cartesian axis) and pressure

          total   stress  (Ry/bohr**3)                   (kbar)     P=        9.84
   0.00007307   0.00000000   0.00000000           10.75        0.00        0.00
   0.00000000   0.00007051   0.00000000            0.00       10.37        0.00
   0.00000000   0.00000000   0.00005715            0.00        0.00        8.41


     BFGS Geometry Optimization
     Energy error            =      0.0E+00 Ry
     Gradient error          =      3.4E-03 Ry/Bohr
     Cell gradient error     =      1.1E+01 kbar

     number of scf cycles    =   1
     number of bfgs steps    =   0

     enthalpy           new  =    -102.7262006801 Ry

     new trust radius        =       0.0137338883 bohr
     new conv_thr            =       0.0000000100 Ry

     new unit-cell volume =   1420.00626 a.u.^3 (   210.42322 Ang^3 )
     density =      0.68848 g/cm^3

CELL_PARAMETERS (alat=  8.15874136)
   1.001826868   0.000000000   0.000000000
   0.000000000   1.325105335   0.000000000
   0.000000000   0.000000000   1.969598407

ATOMIC_POSITIONS (crystal)
B             0.2500000000        0.3475068818        0.3631341264
B             0.2500000000        0.1524931182        0.8631341264
B             0.7500000000        0.6524931182        0.6368658736
B             0.7500000000        0.8475068818        0.1368658736
Li            0.7500000000        0.9197156280        0.8545632215
Li            0.7500000000        0.5802843720        0.3545632215
Li            0.2500000000        0.0802843720        0.1454367785
Li            0.2500000000        0.4197156280        0.6454367785
H             0.4796586356        0.3184541634        0.2812014447
H             0.0203413644        0.1815458366        0.7812014447
H             0.9796586356        0.6815458366        0.7187985553
H             0.5203413644        0.8184541634        0.2187985553
H             0.5203413644        0.6815458366        0.7187985553
H             0.9796586356        0.8184541634        0.2187985553
H             0.0203413644        0.3184541634        0.2812014447
H             0.4796586356        0.1815458366        0.7812014447
H             0.2500000000        0.2034213945        0.4688891120
H             0.2500000000        0.2965786055        0.9688891120
H             0.7500000000        0.7965786055        0.5311108880
H             0.7500000000        0.7034213945        0.0311108880
H             0.2500000000        0.5488492340        0.4120698813
H             0.2500000000        0.9511507660        0.9120698813
H             0.7500000000        0.4511507660        0.5879301187
H             0.7500000000        0.0488492340        0.0879301187



     Writing config-only to output data dir ./LiBH4.save/
     NEW-OLD atomic charge density approx. for the potential
     extrapolated charge   40.19104, renormalised to   40.00000

     total cpu time spent up to now is       73.8 secs

     Self-consistent Calculation

     iteration #  1     ecut=   150.00 Ry     beta= 0.70
     Davidson diagonalization with overlap
     ethr =  1.00E-06,  avg # of iterations =  4.0

     total cpu time spent up to now is       81.4 secs

     total energy              =    -102.72604603 Ry
     estimated scf accuracy    <       0.00056347 Ry

     iteration #  2     ecut=   150.00 Ry     beta= 0.70
     Davidson diagonalization with overlap
     ethr =  1.41E-06,  avg # of iterations =  3.0

     total cpu time spent up to now is       88.3 secs

     total energy              =    -102.72670739 Ry
     estimated scf accuracy    <       0.00071267 Ry

     iteration #  3     ecut=   150.00 Ry     beta= 0.70
     Davidson diagonalization with overlap
     ethr =  1.41E-06,  avg # of iterations =  1.0

     total cpu time spent up to now is       92.6 secs

     total energy              =    -102.72666406 Ry
     estimated scf accuracy    <       0.00017639 Ry

     iteration #  4     ecut=   150.00 Ry     beta= 0.70
     Davidson diagonalization with overlap
     ethr =  4.41E-07,  avg # of iterations =  2.5

     total cpu time spent up to now is       98.1 secs

     total energy              =    -102.72670664 Ry
     estimated scf accuracy    <       0.00000667 Ry

     iteration #  5     ecut=   150.00 Ry     beta= 0.70
     Davidson diagonalization with overlap
     ethr =  1.67E-08,  avg # of iterations =  5.0

     total cpu time spent up to now is      106.2 secs

     total energy              =    -102.72671667 Ry
     estimated scf accuracy    <       0.00000139 Ry

     iteration #  6     ecut=   150.00 Ry     beta= 0.70
     Davidson diagonalization with overlap
     ethr =  3.48E-09,  avg # of iterations =  3.1

     total cpu time spent up to now is      112.7 secs

     total energy              =    -102.72670792 Ry
     estimated scf accuracy    <       0.00001537 Ry

     iteration #  7     ecut=   150.00 Ry     beta= 0.70
     Davidson diagonalization with overlap
     ethr =  3.48E-09,  avg # of iterations =  5.6

     total cpu time spent up to now is      121.1 secs

     total energy              =    -102.72671366 Ry
     estimated scf accuracy    <       0.00001511 Ry

     iteration #  8     ecut=   150.00 Ry     beta= 0.70
     Davidson diagonalization with overlap
     ethr =  3.48E-09,  avg # of iterations =  2.1

     total cpu time spent up to now is      126.6 secs

     total energy              =    -102.72671280 Ry
     estimated scf accuracy    <       0.00000359 Ry

     iteration #  9     ecut=   150.00 Ry     beta= 0.70
     Davidson diagonalization with overlap
     ethr =  3.48E-09,  avg # of iterations =  2.7

     total cpu time spent up to now is      132.3 secs

     total energy              =    -102.72671339 Ry
     estimated scf accuracy    <       0.00000009 Ry

     iteration # 10     ecut=   150.00 Ry     beta= 0.70
     Davidson diagonalization with overlap
     ethr =  2.29E-10,  avg # of iterations =  3.6

     total cpu time spent up to now is      138.0 secs

     total energy              =    -102.72671342 Ry
     estimated scf accuracy    <       0.00000003 Ry

     iteration # 11     ecut=   150.00 Ry     beta= 0.70
     Davidson diagonalization with overlap
     ethr =  8.04E-11,  avg # of iterations =  1.0

     total cpu time spent up to now is      142.2 secs

     total energy              =    -102.72671343 Ry
     estimated scf accuracy    <       0.00000004 Ry

     iteration # 12     ecut=   150.00 Ry     beta= 0.70
     Davidson diagonalization with overlap
     ethr =  8.04E-11,  avg # of iterations =  1.0

     total cpu time spent up to now is      146.4 secs

     total energy              =    -102.72671341 Ry
     estimated scf accuracy    <       0.00000007 Ry

     iteration # 13     ecut=   150.00 Ry     beta= 0.70
     Davidson diagonalization with overlap
     ethr =  8.04E-11,  avg # of iterations =  2.0

     total cpu time spent up to now is      151.7 secs

     total energy              =    -102.72671340 Ry
     estimated scf accuracy    <       0.00000002 Ry

     iteration # 14     ecut=   150.00 Ry     beta= 0.70
     Davidson diagonalization with overlap
     ethr =  3.82E-11,  avg # of iterations =  2.6

     total cpu time spent up to now is      157.3 secs

     End of self-consistent calculation

          k = 0.0000 0.0000 0.0000 ( 43751 PWs)   bands (ev):

   -45.6594 -45.6587 -45.6574 -45.6568  -9.6470  -8.8995  -8.8519  -8.2662
    -4.7859  -4.2929  -4.0354  -3.9864  -3.7892  -3.7582  -3.4469  -3.2103
    -3.0897  -3.0488  -2.8783  -2.7049   3.6099   4.4066   4.6988   4.9362

          k = 0.0000 0.0000 0.0725 ( 43771 PWs)   bands (ev):

   -45.6594 -45.6587 -45.6574 -45.6568  -9.6278  -9.0467  -8.7110  -8.2759
    -4.7901  -4.3971  -3.9391  -3.9162  -3.7760  -3.7303  -3.4705  -3.2496
    -3.1206  -3.0802  -2.8631  -2.7098   3.6497   4.4556   4.6022   5.0649

          k = 0.0000 0.0000 0.1451 ( 43752 PWs)   bands (ev):

   -45.6593 -45.6589 -45.6573 -45.6569  -9.5712  -9.2096  -8.5671  -8.3069
    -4.7871  -4.5483  -3.8204  -3.7376  -3.7237  -3.6467  -3.5302  -3.3486
    -3.2127  -3.1706  -2.8269  -2.7248   3.7617   4.3809   4.5993   5.1348

          k = 0.0000 0.0000 0.2176 ( 43816 PWs)   bands (ev):

   -45.6592 -45.6590 -45.6571 -45.6570  -9.4794  -9.3568  -8.4498  -8.3634
    -4.7519  -4.6717  -3.6782  -3.6773  -3.6052  -3.5835  -3.5128  -3.4301
    -3.3523  -3.3064  -2.7858  -2.7504   3.9304   4.1422   4.8254   5.1065

          k = 0.0000 0.1078 0.0000 ( 43804 PWs)   bands (ev):

   -45.6594 -45.6587 -45.6574 -45.6568  -9.6092  -8.9279  -8.8263  -8.3071
    -4.8634  -4.4676  -4.0250  -3.8600  -3.7503  -3.6048  -3.4132  -3.1998
    -3.1177  -3.0720  -2.9317  -2.7445   3.7252   4.5336   4.7639   5.1003

          k = 0.0000 0.1078 0.0725 ( 43788 PWs)   bands (ev):

   -45.6593 -45.6588 -45.6574 -45.6568  -9.5907  -9.0427  -8.7190  -8.3169
    -4.8637  -4.4589  -4.1012  -3.7374  -3.7347  -3.5831  -3.4372  -3.2363
    -3.2073  -3.0382  -2.9153  -2.7500   3.7633   4.5676   4.6886   5.0844

          k = 0.0000 0.1078 0.1451 ( 43833 PWs)   bands (ev):

   -45.6593 -45.6589 -45.6573 -45.6569  -9.5361  -9.1926  -8.5901  -8.3474
    -4.8425  -4.5276  -4.0574  -3.7002  -3.5927  -3.5173  -3.4971  -3.3817
    -3.2724  -3.0602  -2.8765  -2.7668   3.8707   4.4611   4.7036   5.1642

          k = 0.0000 0.1078 0.2176 ( 43815 PWs)   bands (ev):

   -45.6592 -45.6590 -45.6571 -45.6570  -9.4482  -9.3313  -8.4828  -8.4019
    -4.7747  -4.6604  -3.8775  -3.6640  -3.6424  -3.5711  -3.4805  -3.4044
    -3.2665  -3.1467  -2.8328  -2.7947   4.0325   4.2354   4.8780   5.0930

          k = 0.0000 0.2156 0.0000 ( 43808 PWs)   bands (ev):

   -45.6593 -45.6588 -45.6573 -45.6569  -9.5015  -9.0180  -8.7549  -8.4085
    -4.9901  -4.7330  -3.9210  -3.6885  -3.6385  -3.3488  -3.3172  -3.3003
    -3.1934  -3.0752  -3.0432  -2.8543   4.0442   4.8492   4.8902   5.1312

          k = 0.0000 0.2156 0.0725 ( 43825 PWs)   bands (ev):

   -45.6592 -45.6588 -45.6573 -45.6569  -9.4855  -9.0658  -8.7158  -8.4187
    -4.9742  -4.6754  -4.0558  -3.6271  -3.5918  -3.4106  -3.3448  -3.3242
    -3.1698  -3.0529  -3.0227  -2.8611   4.0753   4.8302   4.8639   5.1306

          k = 0.0000 0.2156 0.1451 ( 43824 PWs)   bands (ev):

   -45.6592 -45.6589 -45.6572 -45.6570  -9.4386  -9.1638  -8.6408  -8.4495
    -4.9082  -4.5657  -4.2231  -3.6858  -3.5937  -3.4065  -3.4037  -3.2751
    -3.1711  -3.0060  -3.0056  -2.8812   4.1631   4.6629   4.8919   5.2342

          k = 0.0000 0.2156 0.2176 ( 43848 PWs)   bands (ev):

   -45.6591 -45.6590 -45.6571 -45.6570  -9.3644  -9.2694  -8.5650  -8.4994
    -4.7819  -4.6219  -4.1586  -3.9288  -3.5418  -3.4766  -3.3300  -3.2759
    -3.1145  -3.0377  -2.9565  -2.9136   4.2968   4.4673   4.9851   5.1223

          k = 0.0000 0.3234 0.0000 ( 43814 PWs)   bands (ev):

   -45.6591 -45.6590 -45.6572 -45.6570  -9.3428  -9.1669  -8.6511  -8.5309
    -5.0318  -4.9408  -3.7397  -3.5702  -3.4693  -3.4513  -3.3444  -3.2691
    -3.1741  -3.1184  -3.0295  -3.0089   4.4634   4.8074   5.0529   5.3042

          k = 0.0000 0.3234 0.0725 ( 43850 PWs)   bands (ev):

   -45.6591 -45.6590 -45.6572 -45.6570  -9.3328  -9.1726  -8.6519  -8.5413
    -4.9947  -4.8866  -3.8914  -3.6825  -3.4615  -3.3813  -3.2859  -3.2501
    -3.1595  -3.1145  -3.0256  -3.0155   4.4774   4.7884   5.0483   5.3055

          k = 0.0000 0.3234 0.1451 ( 43820 PWs)   bands (ev):

   -45.6591 -45.6590 -45.6571 -45.6571  -9.3048  -9.1913  -8.6491  -8.5689
    -4.8821  -4.7450  -4.1320  -3.9257  -3.4390  -3.3221  -3.2623  -3.1660
    -3.1293  -3.1000  -3.0341  -3.0149   4.5162   4.7305   5.0572   5.2601

          k = 0.0000 0.3234 0.2176 ( 43812 PWs)   bands (ev):

   -45.6591 -45.6590 -45.6571 -45.6571  -9.2652  -9.2239  -8.6334  -8.6038
    -4.7111  -4.6015  -4.3148  -4.1813  -3.4051  -3.3642  -3.1929  -3.1592
    -3.0951  -3.0620  -3.0517  -3.0167   4.5754   4.6509   5.1042   5.1794

          k = 0.1426 0.0000 0.0000 ( 43782 PWs)   bands (ev):

   -45.6592 -45.6586 -45.6575 -45.6569  -9.5631  -8.8508  -8.8052  -8.2803
    -4.6915  -4.4094  -4.2204  -4.0238  -3.7499  -3.6525  -3.6016  -3.4122
    -3.3328  -3.0131  -2.8473  -2.7677   3.8344   4.5275   4.6202   4.9628

          k = 0.1426 0.0000 0.0725 ( 43815 PWs)   bands (ev):

   -45.6592 -45.6586 -45.6574 -45.6569  -9.5445  -8.9885  -8.6755  -8.2886
    -4.6967  -4.4454  -4.2012  -3.9788  -3.7536  -3.6773  -3.5660  -3.3709
    -3.3518  -3.0693  -2.8412  -2.7833   3.8749   4.5514   4.6324   4.8186

          k = 0.1426 0.0000 0.1451 ( 43816 PWs)   bands (ev):

   -45.6592 -45.6588 -45.6573 -45.6570  -9.4898  -9.1429  -8.5445  -8.3150
    -4.6968  -4.5255  -4.1502  -3.9122  -3.7739  -3.6424  -3.4957  -3.4012
    -3.3076  -3.1933  -2.8454  -2.8212   3.9875   4.5820   4.6110   4.6629

          k = 0.1426 0.0000 0.2176 ( 43798 PWs)   bands (ev):

   -45.6590 -45.6589 -45.6572 -45.6571  -9.4013  -9.2835  -8.4395  -8.3637
    -4.6695  -4.6088  -4.0742  -3.9816  -3.6524  -3.5522  -3.5261  -3.4429
    -3.2869  -3.2809  -2.8591  -2.8549   4.1527   4.3543   4.6699   4.6870

          k = 0.1426 0.1078 0.0000 ( 43830 PWs)   bands (ev):

   -45.6592 -45.6586 -45.6574 -45.6569  -9.5265  -8.8775  -8.7813  -8.3152
    -4.7741  -4.4099  -4.3931  -3.8757  -3.6559  -3.6451  -3.5291  -3.5012
    -3.2697  -3.0340  -2.8916  -2.7704   3.9525   4.4995   4.8813   5.0531

          k = 0.1426 0.1078 0.0725 ( 43818 PWs)   bands (ev):

   -45.6592 -45.6587 -45.6574 -45.6569  -9.5087  -8.9848  -8.6827  -8.3235
    -4.7740  -4.4310  -4.3523  -3.8934  -3.6967  -3.6294  -3.4984  -3.4687
    -3.2749  -3.0727  -2.8836  -2.7866   3.9910   4.5388   4.8765   4.9148

          k = 0.1426 0.1078 0.1451 ( 43823 PWs)   bands (ev):

   -45.6591 -45.6588 -45.6573 -45.6570  -9.4560  -9.1268  -8.5653  -8.3498
    -4.7551  -4.5060  -4.2444  -3.9176  -3.7543  -3.5956  -3.4757  -3.4252
    -3.2775  -3.1237  -2.8839  -2.8291   4.0982   4.6385   4.6786   4.8878

          k = 0.1426 0.1078 0.2176 ( 43813 PWs)   bands (ev):

   -45.6590 -45.6589 -45.6572 -45.6571  -9.3713  -9.2592  -8.4688  -8.3973
    -4.6978  -4.6068  -4.1184  -3.9992  -3.7004  -3.5981  -3.4981  -3.4643
    -3.2087  -3.1502  -2.8916  -2.8753   4.2565   4.4508   4.7743   4.8619

          k = 0.1426 0.2156 0.0000 ( 43841 PWs)   bands (ev):

   -45.6591 -45.6587 -45.6574 -45.6570  -9.4229  -8.9623  -8.7148  -8.4026
    -4.9018  -4.6654  -4.3314  -3.7818  -3.6638  -3.5758  -3.4692  -3.3218
    -3.2039  -3.0822  -2.9982  -2.8192   4.2786   4.6813   5.2217   5.2294

          k = 0.1426 0.2156 0.0725 ( 43827 PWs)   bands (ev):

   -45.6591 -45.6587 -45.6573 -45.6570  -9.4074  -9.0071  -8.6791  -8.4117
    -4.8864  -4.6117  -4.3555  -3.8418  -3.6904  -3.5447  -3.4823  -3.3054
    -3.2028  -3.0943  -2.9817  -2.8247   4.3106   4.7355   5.1062   5.2683

          k = 0.1426 0.2156 0.1451 ( 43826 PWs)   bands (ev):

   -45.6591 -45.6588 -45.6573 -45.6571  -9.3622  -9.0997  -8.6109  -8.4388
    -4.8270  -4.4948  -4.4173  -3.9552  -3.7246  -3.5706  -3.4696  -3.3330
    -3.1522  -3.0798  -2.9656  -2.8487   4.4008   4.8419   4.9635   5.2585

          k = 0.1426 0.2156 0.2176 ( 43819 PWs)   bands (ev):

   -45.6590 -45.6589 -45.6572 -45.6571  -9.2910  -9.2001  -8.5423  -8.4833
    -4.7183  -4.5811  -4.2833  -4.1045  -3.7101  -3.6445  -3.4371  -3.3928
    -3.0772  -3.0591  -2.9467  -2.8971   4.5356   4.7008   5.1139   5.2403

          k = 0.1426 0.3234 0.0000 ( 43812 PWs)   bands (ev):

   -45.6590 -45.6589 -45.6572 -45.6571  -9.2707  -9.1032  -8.6192  -8.5106
    -4.9449  -4.8611  -4.1977  -3.9973  -3.5440  -3.4983  -3.3203  -3.2202
    -3.1760  -3.0990  -3.0717  -2.9376   4.6979   4.9199   5.2895   5.3521

          k = 0.1426 0.3234 0.0725 ( 43813 PWs)   bands (ev):

   -45.6590 -45.6589 -45.6572 -45.6571  -9.2611  -9.1085  -8.6201  -8.5201
    -4.9114  -4.8130  -4.2254  -4.0305  -3.5872  -3.4987  -3.3666  -3.2566
    -3.1432  -3.0952  -3.0256  -2.9182   4.7179   4.9475   5.2894   5.3873

          k = 0.1426 0.3234 0.1451 ( 43787 PWs)   bands (ev):

   -45.6590 -45.6589 -45.6572 -45.6571  -9.2342  -9.1261  -8.6179  -8.5451
    -4.8114  -4.6846  -4.3177  -4.1345  -3.6272  -3.5089  -3.4592  -3.3428
    -3.0711  -3.0526  -2.9725  -2.8965   4.7709   4.9661   5.3485   5.4622

          k = 0.1426 0.3234 0.2176 ( 43832 PWs)   bands (ev):

   -45.6589 -45.6589 -45.6572 -45.6572  -9.1963  -9.1570  -8.6038  -8.5769
    -4.6592  -4.5293  -4.4475  -4.2996  -3.6136  -3.5508  -3.4868  -3.4274
    -3.0174  -3.0150  -2.9347  -2.9037   4.8422   4.9166   5.4660   5.5267

          k = 0.2852 0.0000 0.0000 ( 43796 PWs)   bands (ev):

   -45.6588 -45.6584 -45.6576 -45.6572  -9.3246  -8.7311  -8.6943  -8.3724
    -4.7764  -4.4404  -4.2726  -4.0877  -4.0669  -3.7409  -3.7084  -3.6644
    -3.4843  -3.0071  -2.9848  -2.9771   4.2627   4.4067   4.6187   4.7819

          k = 0.2852 0.0000 0.0725 ( 43812 PWs)   bands (ev):

   -45.6588 -45.6584 -45.6576 -45.6572  -9.3081  -8.8374  -8.6014  -8.3754
    -4.7576  -4.4452  -4.2808  -4.0955  -4.0799  -3.7594  -3.7112  -3.6022
    -3.4550  -3.1111  -2.9816  -2.9405   4.2876   4.4078   4.6261   4.7931

          k = 0.2852 0.0000 0.1451 ( 43822 PWs)   bands (ev):

   -45.6588 -45.6585 -45.6575 -45.6573  -9.2598  -8.9629  -8.5134  -8.3861
    -4.7027  -4.4420  -4.3539  -4.1719  -3.9932  -3.7912  -3.6859  -3.4934
    -3.4023  -3.2720  -2.9911  -2.9409   4.3483   4.4115   4.6470   4.8015

          k = 0.2852 0.0000 0.2176 ( 43837 PWs)   bands (ev):

   -45.6587 -45.6586 -45.6574 -45.6573  -9.1824  -9.0810  -8.4497  -8.4089
    -4.6160  -4.5088  -4.3516  -4.2685  -3.8872  -3.8261  -3.6051  -3.4524
    -3.4045  -3.3740  -2.9921  -2.9704   4.4014   4.4154   4.6939   4.7639

          k = 0.2852 0.1078 0.0000 ( 43848 PWs)   bands (ev):

   -45.6588 -45.6584 -45.6576 -45.6572  -9.2926  -8.7523  -8.6760  -8.3886
    -4.8064  -4.4895  -4.3773  -4.0873  -4.0315  -3.9330  -3.6388  -3.5010
    -3.4011  -3.1342  -2.9920  -2.8631   4.3557   4.5086   4.6815   4.9276

          k = 0.2852 0.1078 0.0725 ( 43825 PWs)   bands (ev):

   -45.6588 -45.6584 -45.6576 -45.6572  -9.2768  -8.8348  -8.6065  -8.3920
    -4.7900  -4.4983  -4.3513  -4.1824  -3.9526  -3.9287  -3.6492  -3.5077
    -3.3650  -3.1576  -3.0056  -2.8762   4.3767   4.5300   4.6960   4.9388

          k = 0.2852 0.1078 0.1451 ( 43825 PWs)   bands (ev):

   -45.6588 -45.6585 -45.6575 -45.6573  -9.2305  -8.9497  -8.5275  -8.4038
    -4.7435  -4.5131  -4.3545  -4.2191  -3.9393  -3.9173  -3.6400  -3.4618
    -3.3366  -3.2267  -3.0174  -2.9161   4.4372   4.5745   4.7303   4.9373

          k = 0.2852 0.1078 0.2176 ( 43827 PWs)   bands (ev):

   -45.6587 -45.6586 -45.6574 -45.6573  -9.1567  -9.0605  -8.4678  -8.4276
    -4.6718  -4.5826  -4.3209  -4.2462  -3.9473  -3.9278  -3.5621  -3.4486
    -3.3409  -3.2794  -3.0062  -2.9684   4.5188   4.5802   4.7921   4.8800

          k = 0.2852 0.2156 0.0000 ( 43825 PWs)   bands (ev):

   -45.6588 -45.6585 -45.6575 -45.6573  -9.2028  -8.8201  -8.6265  -8.4315
    -4.8308  -4.5980  -4.5332  -4.3096  -4.0266  -3.8552  -3.5184  -3.3880
    -3.2594  -3.2519  -2.9944  -2.7911   4.6110   4.7565   4.9365   5.2697

          k = 0.2852 0.2156 0.0725 ( 43836 PWs)   bands (ev):

   -45.6587 -45.6585 -45.6575 -45.6573  -9.1893  -8.8545  -8.6032  -8.4364
    -4.8215  -4.6140  -4.4933  -4.3082  -4.0517  -3.8364  -3.5361  -3.3993
    -3.2603  -3.2295  -3.0019  -2.8142   4.6421   4.7994   4.9625   5.2982

          k = 0.2852 0.2156 0.1451 ( 43852 PWs)   bands (ev):

   -45.6587 -45.6585 -45.6575 -45.6573  -9.1499  -8.9283  -8.5586  -8.4516
    -4.7944  -4.6401  -4.4210  -4.3009  -4.0633  -3.8613  -3.5774  -3.3683
    -3.2901  -3.1776  -3.0161  -2.8767   4.7374   4.8993   5.0163   5.3130

          k = 0.2852 0.2156 0.2176 ( 43852 PWs)   bands (ev):

   -45.6587 -45.6586 -45.6574 -45.6574  -9.0885  -9.0114  -8.5147  -8.4781
    -4.7488  -4.6902  -4.3415  -4.2973  -4.0363  -3.9549  -3.5492  -3.4393
    -3.2273  -3.1441  -3.0188  -2.9564   4.8736   4.9638   5.0784   5.2045

          k = 0.2852 0.3234 0.0000 ( 43869 PWs)   bands (ev):

   -45.6587 -45.6586 -45.6574 -45.6574  -9.0735  -8.9345  -8.5596  -8.4910
    -4.7656  -4.6652  -4.6476  -4.5776  -3.9130  -3.8274  -3.4546  -3.4196
    -3.2399  -3.1951  -2.9193  -2.8157   4.9195   5.0173   5.2920   5.4806

          k = 0.2852 0.3234 0.0725 ( 43843 PWs)   bands (ev):

   -45.6587 -45.6586 -45.6574 -45.6574  -9.0651  -8.9383  -8.5615  -8.4975
    -4.7768  -4.6986  -4.5926  -4.5308  -3.9525  -3.8456  -3.4415  -3.3647
    -3.2740  -3.2272  -2.9170  -2.8284   4.9672   5.0677   5.3264   5.5220

          k = 0.2852 0.3234 0.1451 ( 43862 PWs)   bands (ev):

   -45.6586 -45.6586 -45.6574 -45.6574  -9.0418  -8.9516  -8.5625  -8.5148
    -4.7829  -4.7268  -4.5044  -4.4537  -3.9963  -3.8868  -3.4918  -3.3829
    -3.2431  -3.1925  -2.9341  -2.8741   5.0974   5.1901   5.4106   5.6083

          k = 0.2852 0.3234 0.2176 ( 43861 PWs)   bands (ev):

   -45.6586 -45.6586 -45.6574 -45.6574  -9.0094  -8.9765  -8.5549  -8.5368
    -4.7709  -4.7494  -4.4324  -4.4126  -3.9785  -3.9232  -3.5626  -3.5059
    -3.1244  -3.0807  -2.9917  -2.9532   5.2549   5.2996   5.4932   5.5727

          k = 0.4278 0.0000 0.0000 ( 43882 PWs)   bands (ev):

   -45.6583 -45.6581 -45.6578 -45.6577  -8.9780  -8.6187  -8.6178  -8.6028
    -4.7888  -4.5514  -4.5213  -4.4300  -3.9366  -3.6850  -3.6847  -3.6644
    -3.4702  -3.4344  -3.0901  -3.0838   4.1006   4.2208   5.0788   5.0881

          k = 0.4278 0.0000 0.0725 ( 43854 PWs)   bands (ev):

   -45.6583 -45.6581 -45.6578 -45.6577  -8.9659  -8.6660  -8.6136  -8.5748
    -4.7733  -4.5620  -4.4817  -4.4215  -3.9911  -3.7144  -3.7127  -3.6092
    -3.4796  -3.3938  -3.1497  -3.0573   4.1465   4.2682   4.9012   5.2265

          k = 0.4278 0.0000 0.1451 ( 43796 PWs)   bands (ev):

   -45.6583 -45.6581 -45.6578 -45.6577  -8.9306  -8.7345  -8.5999  -8.5618
    -4.7295  -4.5711  -4.4182  -4.3997  -4.0532  -3.8231  -3.7432  -3.5354
    -3.4848  -3.3091  -3.2177  -3.0740   4.2733   4.4062   4.7510   5.1490

          k = 0.4278 0.0000 0.2176 ( 43812 PWs)   bands (ev):

   -45.6582 -45.6582 -45.6578 -45.6577  -8.8759  -8.8077  -8.5819  -8.5665
    -4.6666  -4.6048  -4.3773  -4.3773  -4.0386  -3.9468  -3.7192  -3.6343
    -3.3714  -3.2851  -3.2160  -3.1319   4.4446   4.6092   4.6248   4.8981

          k = 0.4278 0.1078 0.0000 ( 43832 PWs)   bands (ev):

   -45.6583 -45.6581 -45.6578 -45.6577  -8.9564  -8.6456  -8.5949  -8.5933
    -4.8568  -4.6376  -4.4774  -4.4041  -4.0520  -3.8881  -3.6944  -3.5807
    -3.3853  -3.3322  -3.0728  -3.0227   4.2432   4.3232   5.1959   5.1966

          k = 0.4278 0.1078 0.0725 ( 43856 PWs)   bands (ev):

   -45.6583 -45.6581 -45.6578 -45.6577  -8.9448  -8.6696  -8.6088  -8.5697
    -4.8453  -4.6238  -4.4847  -4.3936  -4.1059  -3.8259  -3.7210  -3.5264
    -3.4252  -3.3233  -3.1202  -3.0160   4.2869   4.3682   5.0171   5.3473

          k = 0.4278 0.1078 0.1451 ( 43833 PWs)   bands (ev):

   -45.6582 -45.6581 -45.6578 -45.6577  -8.9112  -8.7279  -8.5993  -8.5604
    -4.8080  -4.6071  -4.5056  -4.3910  -4.1160  -3.8026  -3.7186  -3.5146
    -3.3873  -3.3397  -3.1911  -3.0458   4.4076   4.5001   4.8735   5.2475

          k = 0.4278 0.1078 0.2176 ( 43802 PWs)   bands (ev):

   -45.6582 -45.6582 -45.6578 -45.6577  -8.8593  -8.7953  -8.5823  -8.5667
    -4.7432  -4.6608  -4.4794  -4.4254  -4.0260  -3.8873  -3.6768  -3.5541
    -3.3712  -3.2713  -3.2249  -3.1199   4.5710   4.6997   4.7473   4.9843

          k = 0.4278 0.2156 0.0000 ( 43858 PWs)   bands (ev):

   -45.6582 -45.6581 -45.6578 -45.6577  -8.8977  -8.6839  -8.5764  -8.5704
    -4.9674  -4.8010  -4.4104  -4.3936  -4.2193  -4.0089  -3.7162  -3.7071
    -3.2324  -3.1175  -3.0559  -2.9190   4.6145   4.6312   5.4055   5.4441

          k = 0.4278 0.2156 0.0725 ( 43865 PWs)   bands (ev):

   -45.6582 -45.6581 -45.6578 -45.6577  -8.8878  -8.6916  -8.5911  -8.5600
    -4.9592  -4.7912  -4.4573  -4.4304  -4.2078  -3.9083  -3.7703  -3.5815
    -3.2962  -3.1265  -3.0930  -2.9381   4.6529   4.6702   5.2823   5.6120

          k = 0.4278 0.2156 0.1451 ( 43860 PWs)   bands (ev):

   -45.6582 -45.6582 -45.6578 -45.6577  -8.8596  -8.7204  -8.5958  -8.5595
    -4.9288  -4.7695  -4.5810  -4.4918  -4.1087  -3.7644  -3.7263  -3.4485
    -3.3829  -3.2304  -3.1521  -3.0001   4.7594   4.7851   5.1766   5.4932

          k = 0.4278 0.2156 0.2176 ( 43849 PWs)   bands (ev):

   -45.6582 -45.6582 -45.6578 -45.6577  -8.8169  -8.7669  -8.5853  -8.5700
    -4.8689  -4.7910  -4.6305  -4.5726  -3.9511  -3.7909  -3.5917  -3.4496
    -3.3580  -3.2556  -3.2396  -3.1046   4.9035   4.9614   5.0714   5.2303

          k = 0.4278 0.3234 0.0000 ( 43896 PWs)   bands (ev):

   -45.6582 -45.6582 -45.6578 -45.6577  -8.8191  -8.7424  -8.5598  -8.5570
    -5.0114  -4.9485  -4.4422  -4.4172  -4.1842  -4.0658  -3.7999  -3.7709
    -3.1255  -3.0692  -2.9502  -2.8819   4.9973   5.0122   5.5072   5.6172

          k = 0.4278 0.3234 0.0725 ( 43872 PWs)   bands (ev):

   -45.6582 -45.6582 -45.6578 -45.6577  -8.8124  -8.7410  -8.5691  -8.5574
    -5.0047  -4.9417  -4.4988  -4.4921  -4.1312  -3.9935  -3.7677  -3.6791
    -3.1765  -3.1092  -2.9756  -2.9114   5.0310   5.0433   5.5085   5.7002

          k = 0.4278 0.3234 0.1451 ( 43880 PWs)   bands (ev):

   -45.6582 -45.6582 -45.6578 -45.6577  -8.7942  -8.7405  -8.5825  -8.5664
    -4.9801  -4.9210  -4.6302  -4.5983  -4.0024  -3.8665  -3.6320  -3.5202
    -3.2928  -3.2158  -3.0591  -2.9955   5.1210   5.1352   5.4907   5.6819

          k = 0.4278 0.3234 0.2176 ( 43863 PWs)   bands (ev):

   -45.6582 -45.6582 -45.6578 -45.6578  -8.7700  -8.7494  -8.5876  -8.5796
    -4.9353  -4.9031  -4.7185  -4.6940  -3.8447  -3.7671  -3.5122  -3.4408
    -3.3339  -3.2791  -3.1879  -3.1229   5.2345   5.2572   5.4413   5.5260

     the Fermi energy is    -0.2095 ev

!    total energy              =    -102.72671341 Ry
     estimated scf accuracy    <          1.5E-09 Ry
     smearing contrib. (-TS)   =       0.00000000 Ry
     internal energy E=F+TS    =    -102.72671341 Ry

     The total energy is F=E-TS. E is the sum of the following terms:
     one-electron contribution =     -57.01554214 Ry
     hartree contribution      =      31.26702800 Ry
     xc contribution           =     -37.18259572 Ry
     ewald contribution        =     -39.79560355 Ry

     convergence has been achieved in  14 iterations

     Forces acting on atoms (cartesian axes, Ry/au):

     atom    1 type  1   force =     0.00000000    0.00009543    0.00015520
     atom    2 type  1   force =     0.00000000   -0.00009543    0.00015520
     atom    3 type  1   force =     0.00000000   -0.00009543   -0.00015520
     atom    4 type  1   force =     0.00000000    0.00009543   -0.00015520
     atom    5 type  2   force =    -0.00000000   -0.00028317    0.00131995
     atom    6 type  2   force =     0.00000000    0.00028317    0.00131995
     atom    7 type  2   force =     0.00000000    0.00028317   -0.00131995
     atom    8 type  2   force =    -0.00000000   -0.00028317   -0.00131995
     atom    9 type  3   force =     0.00051600   -0.00029631   -0.00005313
     atom   10 type  3   force =    -0.00051600    0.00029631   -0.00005313
     atom   11 type  3   force =     0.00051600    0.00029631    0.00005313
     atom   12 type  3   force =    -0.00051600   -0.00029631    0.00005313
     atom   13 type  3   force =    -0.00051600    0.00029631    0.00005313
     atom   14 type  3   force =     0.00051600   -0.00029631    0.00005313
     atom   15 type  3   force =    -0.00051600   -0.00029631   -0.00005313
     atom   16 type  3   force =     0.00051600    0.00029631   -0.00005313
     atom   17 type  3   force =    -0.00000000   -0.00074117    0.00034823
     atom   18 type  3   force =     0.00000000    0.00074117    0.00034823
     atom   19 type  3   force =     0.00000000    0.00074117   -0.00034823
     atom   20 type  3   force =     0.00000000   -0.00074117   -0.00034823
     atom   21 type  3   force =     0.00000000    0.00091779    0.00008038
     atom   22 type  3   force =     0.00000000   -0.00091779    0.00008038
     atom   23 type  3   force =    -0.00000000   -0.00091779   -0.00008038
     atom   24 type  3   force =     0.00000000    0.00091779   -0.00008038

     Total force =     0.004044     Total SCF correction =     0.000023


     Computing stress (Cartesian axis) and pressure

          total   stress  (Ry/bohr**3)                   (kbar)     P=        5.41
   0.00004069   0.00000000   0.00000000            5.99        0.00        0.00
   0.00000000   0.00004115   0.00000000            0.00        6.05        0.00
   0.00000000   0.00000000   0.00002852            0.00        0.00        4.20

     Energy error            =      5.1E-04 Ry
     Gradient error          =      1.3E-03 Ry/Bohr
     Cell gradient error     =      6.1E+00 kbar

     number of scf cycles    =   2
     number of bfgs steps    =   1

     enthalpy           old  =    -102.7262006801 Ry
     enthalpy           new  =    -102.7267134089 Ry

     CASE: enthalpy          _new < enthalpy          _old

     new trust radius        =       0.0154377702 bohr
     new conv_thr            =       0.0000000001 Ry

     new unit-cell volume =   1427.86828 a.u.^3 (   211.58825 Ang^3 )
     density =      0.68469 g/cm^3

CELL_PARAMETERS (alat=  8.15874136)
   1.003865012   0.000000000   0.000000000
   0.000000000   1.327819648   0.000000000
   0.000000000   0.000000000   1.972441986

ATOMIC_POSITIONS (crystal)
B             0.2500000000        0.3475285956        0.3631598071
B             0.2500000000        0.1524714044        0.8631598071
B             0.7500000000        0.6524714044        0.6368401929
B             0.7500000000        0.8475285956        0.1368401929
Li            0.7500000000        0.9196657547        0.8547210067
Li            0.7500000000        0.5803342453        0.3547210067
Li            0.2500000000        0.0803342453        0.1452789933
Li            0.2500000000        0.4196657547        0.6452789933
H             0.4798166267        0.3183963593        0.2811821446
H             0.0201833733        0.1816036407        0.7811821446
H             0.9798166267        0.6816036407        0.7188178554
H             0.5201833733        0.8183963593        0.2188178554
H             0.5201833733        0.6816036407        0.7188178554
H             0.9798166267        0.8183963593        0.2188178554
H             0.0201833733        0.3183963593        0.2811821446
H             0.4798166267        0.1816036407        0.7811821446
H             0.2500000000        0.2032686539        0.4689436873
H             0.2500000000        0.2967313461        0.9689436873
H             0.7500000000        0.7967313461        0.5310563127
H             0.7500000000        0.7032686539        0.0310563127
H             0.2500000000        0.5490381895        0.4120847421
H             0.2500000000        0.9509618105        0.9120847421
H             0.7500000000        0.4509618105        0.5879152579
H             0.7500000000        0.0490381895        0.0879152579



     Writing config-only to output data dir ./LiBH4.save/
     NEW-OLD atomic charge density approx. for the potential
     extrapolated charge   40.21031, renormalised to   40.00000

     total cpu time spent up to now is      164.0 secs

     Self-consistent Calculation

     iteration #  1     ecut=   150.00 Ry     beta= 0.70
     Davidson diagonalization with overlap
     ethr =  1.00E-06,  avg # of iterations =  5.0

     total cpu time spent up to now is      172.0 secs

     total energy              =    -102.72622720 Ry
     estimated scf accuracy    <       0.00047485 Ry

     iteration #  2     ecut=   150.00 Ry     beta= 0.70
     Davidson diagonalization with overlap
     ethr =  1.19E-06,  avg # of iterations =  3.2

     total cpu time spent up to now is      179.2 secs

     total energy              =    -102.72692608 Ry
     estimated scf accuracy    <       0.00078537 Ry

     iteration #  3     ecut=   150.00 Ry     beta= 0.70
     Davidson diagonalization with overlap
     ethr =  1.19E-06,  avg # of iterations =  1.2

     total cpu time spent up to now is      183.5 secs

     total energy              =    -102.72684304 Ry
     estimated scf accuracy    <       0.00021527 Ry

     iteration #  4     ecut=   150.00 Ry     beta= 0.70
     Davidson diagonalization with overlap
     ethr =  5.38E-07,  avg # of iterations =  3.3

     total cpu time spent up to now is      189.5 secs

     total energy              =    -102.72691306 Ry
     estimated scf accuracy    <       0.00000294 Ry

     iteration #  5     ecut=   150.00 Ry     beta= 0.70
     Davidson diagonalization with overlap
     ethr =  7.34E-09,  avg # of iterations =  5.0

     total cpu time spent up to now is      197.4 secs

     total energy              =    -102.72692033 Ry
     estimated scf accuracy    <       0.00000714 Ry

     iteration #  6     ecut=   150.00 Ry     beta= 0.70
     Davidson diagonalization with overlap
     ethr =  7.34E-09,  avg # of iterations =  1.8

     total cpu time spent up to now is      202.0 secs

     total energy              =    -102.72693176 Ry
     estimated scf accuracy    <       0.00001329 Ry

     iteration #  7     ecut=   150.00 Ry     beta= 0.70
     Davidson diagonalization with overlap
     ethr =  7.34E-09,  avg # of iterations =  3.4

     total cpu time spent up to now is      208.0 secs

     total energy              =    -102.72691289 Ry
     estimated scf accuracy    <       0.00005280 Ry

     iteration #  8     ecut=   150.00 Ry     beta= 0.70
     Davidson diagonalization with overlap
     ethr =  7.34E-09,  avg # of iterations =  7.2

     total cpu time spent up to now is      219.3 secs

     total energy              =    -102.72689642 Ry
     estimated scf accuracy    <       0.00034222 Ry

     iteration #  9     ecut=   150.00 Ry     beta= 0.70
     Davidson diagonalization with overlap
     ethr =  7.34E-09,  avg # of iterations =  5.9

     total cpu time spent up to now is      227.5 secs

     total energy              =    -102.72691453 Ry
     estimated scf accuracy    <       0.00003499 Ry

     iteration # 10     ecut=   150.00 Ry     beta= 0.70
     Davidson diagonalization with overlap
     ethr =  7.34E-09,  avg # of iterations =  3.6

     total cpu time spent up to now is      233.9 secs

     total energy              =    -102.72691609 Ry
     estimated scf accuracy    <       0.00000576 Ry

     iteration # 11     ecut=   150.00 Ry     beta= 0.70
     Davidson diagonalization with overlap
     ethr =  7.34E-09,  avg # of iterations =  1.2

     total cpu time spent up to now is      238.2 secs

     total energy              =    -102.72691510 Ry
     estimated scf accuracy    <       0.00000274 Ry

     iteration # 12     ecut=   150.00 Ry     beta= 0.70
     Davidson diagonalization with overlap
     ethr =  6.85E-09,  avg # of iterations =  2.6

     total cpu time spent up to now is      243.7 secs

     total energy              =    -102.72691551 Ry
     estimated scf accuracy    <       0.00000019 Ry

     iteration # 13     ecut=   150.00 Ry     beta= 0.70
     Davidson diagonalization with overlap
     ethr =  4.84E-10,  avg # of iterations =  4.7

     total cpu time spent up to now is      251.0 secs

     total energy              =    -102.72691569 Ry
     estimated scf accuracy    <          8.2E-09 Ry

     iteration # 14     ecut=   150.00 Ry     beta= 0.70
     Davidson diagonalization with overlap
     ethr =  2.05E-11,  avg # of iterations =  5.0

     total cpu time spent up to now is      258.6 secs

     total energy              =    -102.72691571 Ry
     estimated scf accuracy    <       0.00000008 Ry

     iteration # 15     ecut=   150.00 Ry     beta= 0.70
     Davidson diagonalization with overlap
     ethr =  2.05E-11,  avg # of iterations =  1.1

     total cpu time spent up to now is      262.8 secs

     total energy              =    -102.72691566 Ry
     estimated scf accuracy    <       0.00000010 Ry

     iteration # 16     ecut=   150.00 Ry     beta= 0.70
     Davidson diagonalization with overlap
     ethr =  2.05E-11,  avg # of iterations =  3.0

     total cpu time spent up to now is      269.2 secs

     total energy              =    -102.72691567 Ry
     estimated scf accuracy    <          4.3E-09 Ry

     iteration # 17     ecut=   150.00 Ry     beta= 0.70
     Davidson diagonalization with overlap
     ethr =  1.08E-11,  avg # of iterations =  1.0

     total cpu time spent up to now is      273.4 secs

     total energy              =    -102.72691567 Ry
     estimated scf accuracy    <          5.6E-09 Ry

     iteration # 18     ecut=   150.00 Ry     beta= 0.70
     Davidson diagonalization with overlap
     ethr =  1.08E-11,  avg # of iterations =  2.0

     total cpu time spent up to now is      278.9 secs

     total energy              =    -102.72691567 Ry
     estimated scf accuracy    <          8.3E-10 Ry

     iteration # 19     ecut=   150.00 Ry     beta= 0.70
     Davidson diagonalization with overlap
     ethr =  2.08E-12,  avg # of iterations =  2.0

     total cpu time spent up to now is      283.9 secs

     total energy              =    -102.72691567 Ry
     estimated scf accuracy    <          1.2E-09 Ry

     iteration # 20     ecut=   150.00 Ry     beta= 0.70
     Davidson diagonalization with overlap
     ethr =  2.08E-12,  avg # of iterations =  1.9

     total cpu time spent up to now is      288.5 secs

     total energy              =    -102.72691567 Ry
     estimated scf accuracy    <          2.1E-09 Ry

     iteration # 21     ecut=   150.00 Ry     beta= 0.70
     Davidson diagonalization with overlap
     ethr =  2.08E-12,  avg # of iterations =  2.0

     total cpu time spent up to now is      293.7 secs

     total energy              =    -102.72691567 Ry
     estimated scf accuracy    <          4.1E-10 Ry

     iteration # 22     ecut=   150.00 Ry     beta= 0.70
     Davidson diagonalization with overlap
     ethr =  1.03E-12,  avg # of iterations =  3.3

     total cpu time spent up to now is      299.7 secs

     End of self-consistent calculation

          k = 0.0000 0.0000 0.0000 ( 43751 PWs)   bands (ev):

   -45.6900 -45.6893 -45.6881 -45.6874  -9.6432  -8.8995  -8.8512  -8.2702
    -4.7912  -4.2981  -4.0480  -3.9979  -3.7992  -3.7701  -3.4584  -3.2256
    -3.1017  -3.0646  -2.8937  -2.7216   3.5814   4.3662   4.6606   4.8977

          k = 0.0000 0.0000 0.0724 ( 43771 PWs)   bands (ev):

   -45.6900 -45.6893 -45.6880 -45.6874  -9.6241  -9.0456  -8.7116  -8.2799
    -4.7955  -4.4033  -3.9504  -3.9279  -3.7860  -3.7425  -3.4819  -3.2643
    -3.1330  -3.0959  -2.8786  -2.7265   3.6206   4.4153   4.5646   5.0274

          k = 0.0000 0.0000 0.1449 ( 43752 PWs)   bands (ev):

   -45.6899 -45.6895 -45.6879 -45.6875  -9.5676  -9.2076  -8.5687  -8.3106
    -4.7927  -4.5545  -3.8314  -3.7478  -3.7357  -3.6596  -3.5414  -3.3623
    -3.2257  -3.1857  -2.8426  -2.7413   3.7310   4.3448   4.5592   5.0982

          k = 0.0000 0.0000 0.2173 ( 43816 PWs)   bands (ev):

   -45.6898 -45.6896 -45.6877 -45.6876  -9.4763  -9.3542  -8.4522  -8.3666
    -4.7576  -4.6776  -3.6887  -3.6882  -3.6160  -3.5949  -3.5265  -3.4444
    -3.3653  -3.3207  -2.8018  -2.7667   3.8978   4.1078   4.7856   5.0675

          k = 0.0000 0.1076 0.0000 ( 43804 PWs)   bands (ev):

   -45.6899 -45.6893 -45.6880 -45.6874  -9.6055  -8.9278  -8.8259  -8.3108
    -4.8683  -4.4737  -4.0375  -3.8701  -3.7605  -3.6177  -3.4249  -3.2158
    -3.1296  -3.0875  -2.9468  -2.7609   3.6958   4.4930   4.7250   5.0617

          k = 0.0000 0.1076 0.0724 ( 43788 PWs)   bands (ev):

   -45.6899 -45.6894 -45.6880 -45.6875  -9.5871  -9.0417  -8.7195  -8.3205
    -4.8686  -4.4647  -4.1127  -3.7477  -3.7461  -3.5960  -3.4489  -3.2507
    -3.2212  -3.0527  -2.9305  -2.7664   3.7334   4.5272   4.6503   5.0474

          k = 0.0000 0.1076 0.1449 ( 43833 PWs)   bands (ev):

   -45.6899 -45.6895 -45.6879 -45.6875  -9.5328  -9.1909  -8.5916  -8.3507
    -4.8476  -4.5336  -4.0682  -3.7106  -3.6056  -3.5299  -3.5085  -3.3938
    -3.2880  -3.0748  -2.8919  -2.7830   3.8393   4.4243   4.6636   5.1258

          k = 0.0000 0.1076 0.2173 ( 43815 PWs)   bands (ev):

   -45.6897 -45.6896 -45.6878 -45.6876  -9.4452  -9.3289  -8.4850  -8.4047
    -4.7801  -4.6663  -3.8883  -3.6755  -3.6531  -3.5821  -3.4939  -3.4176
    -3.2812  -3.1611  -2.8485  -2.8107   3.9994   4.2005   4.8381   5.0531

          k = 0.0000 0.2152 0.0000 ( 43808 PWs)   bands (ev):

   -45.6899 -45.6894 -45.6879 -45.6875  -9.4985  -9.0176  -8.7550  -8.4112
    -4.9943  -4.7384  -3.9340  -3.6983  -3.6494  -3.3631  -3.3296  -3.3158
    -3.2050  -3.0894  -3.0591  -2.8698   4.0125   4.8098   4.8506   5.0920

          k = 0.0000 0.2152 0.0724 ( 43825 PWs)   bands (ev):

   -45.6898 -45.6894 -45.6879 -45.6876  -9.4825  -9.0651  -8.7162  -8.4214
    -4.9785  -4.6809  -4.0671  -3.6380  -3.6039  -3.4230  -3.3571  -3.3387
    -3.1843  -3.0673  -3.0379  -2.8766   4.0431   4.7899   4.8261   5.0910

          k = 0.0000 0.2152 0.1449 ( 43824 PWs)   bands (ev):

   -45.6898 -45.6895 -45.6878 -45.6876  -9.4358  -9.1625  -8.6418  -8.4519
    -4.9128  -4.5710  -4.2336  -3.6977  -3.6048  -3.4184  -3.4168  -3.2888
    -3.1870  -3.0206  -3.0203  -2.8966   4.1298   4.6252   4.8526   5.1920

          k = 0.0000 0.2152 0.2173 ( 43848 PWs)   bands (ev):

   -45.6897 -45.6896 -45.6878 -45.6877  -9.3620  -9.2675  -8.5666  -8.5014
    -4.7870  -4.6274  -4.1686  -3.9393  -3.5531  -3.4883  -3.3443  -3.2903
    -3.1295  -3.0525  -2.9714  -2.9288   4.2622   4.4312   4.9450   5.0812

          k = 0.0000 0.3228 0.0000 ( 43814 PWs)   bands (ev):

   -45.6897 -45.6896 -45.6878 -45.6877  -9.3407  -9.1658  -8.6519  -8.5326
    -5.0357  -4.9453  -3.7537  -3.5833  -3.4812  -3.4629  -3.3550  -3.2822
    -3.1874  -3.1341  -3.0459  -3.0233   4.4287   4.7710   5.0131   5.2649

          k = 0.0000 0.3228 0.0724 ( 43850 PWs)   bands (ev):

   -45.6897 -45.6896 -45.6878 -45.6877  -9.3307  -9.1715  -8.6527  -8.5430
    -4.9988  -4.8913  -3.9031  -3.6950  -3.4734  -3.3932  -3.2988  -3.2633
    -3.1730  -3.1301  -3.0416  -3.0299   4.4424   4.7519   5.0080   5.2650

          k = 0.0000 0.3228 0.1449 ( 43820 PWs)   bands (ev):

   -45.6897 -45.6896 -45.6878 -45.6877  -9.3029  -9.1900  -8.6499  -8.5703
    -4.8867  -4.7500  -4.1421  -3.9365  -3.4511  -3.3348  -3.2764  -3.1813
    -3.1430  -3.1148  -3.0484  -3.0300   4.4806   4.6937   5.0163   5.2181

          k = 0.0000 0.3228 0.2173 ( 43812 PWs)   bands (ev):

   -45.6897 -45.6896 -45.6877 -45.6877  -9.2635  -9.2224  -8.6344  -8.6050
    -4.7162  -4.6064  -4.3246  -4.1909  -3.4173  -3.3767  -3.2084  -3.1752
    -3.1090  -3.0761  -3.0660  -3.0312   4.5391   4.6141   5.0628   5.1374

          k = 0.1423 0.0000 0.0000 ( 43782 PWs)   bands (ev):

   -45.6898 -45.6892 -45.6881 -45.6875  -9.5596  -8.8512  -8.8049  -8.2844
    -4.6973  -4.4183  -4.2262  -4.0348  -3.7615  -3.6636  -3.6146  -3.4265
    -3.3478  -3.0251  -2.8628  -2.7835   3.8057   4.4884   4.5841   4.9265

          k = 0.1423 0.0000 0.0724 ( 43815 PWs)   bands (ev):

[...]

   -45.8307 -45.8306 -45.8289 -45.8288  -9.3766  -9.2245  -8.7182  -8.6140
    -5.0220  -4.9203  -3.9752  -3.7733  -3.5625  -3.4742  -3.3944  -3.3499
    -3.2688  -3.2283  -3.1429  -3.1317   4.3363   4.6340   4.8932   5.1478

          k = 0.0000 0.3203 0.1441 ( 45215 PWs)   bands (ev):

   -45.8307 -45.8306 -45.8289 -45.8288  -9.3500  -9.2424  -8.7150  -8.6397
    -4.9144  -4.7836  -4.2031  -4.0036  -3.5409  -3.4286  -3.3675  -3.2779
    -3.2404  -3.2099  -3.1495  -3.1282   4.3721   4.5775   4.8950   5.0886

          k = 0.0000 0.3203 0.2162 ( 45184 PWs)   bands (ev):

   -45.8307 -45.8307 -45.8289 -45.8288  -9.3125  -9.2734  -8.7000  -8.6722
    -4.7502  -4.6433  -4.3796  -4.2489  -3.5081  -3.4689  -3.3058  -3.2749
    -3.2079  -3.1762  -3.1602  -3.1272   4.4277   4.5001   4.9362   5.0074

          k = 0.1411 0.0000 0.0000 ( 45228 PWs)   bands (ev):

   -45.8308 -45.8303 -45.8292 -45.8287  -9.5956  -8.9178  -8.8634  -8.3716
    -4.7290  -4.4687  -4.2790  -4.1027  -3.8340  -3.7388  -3.7002  -3.5178
    -3.4362  -3.1130  -2.9689  -2.8947   3.7329   4.3554   4.4797   4.8222

          k = 0.1411 0.0000 0.0721 ( 45240 PWs)   bands (ev):

   -45.8308 -45.8304 -45.8291 -45.8287  -9.5777  -9.0445  -8.7448  -8.3795
    -4.7349  -4.5012  -4.2630  -4.0575  -3.8344  -3.7681  -3.6647  -3.4764
    -3.4544  -3.1695  -2.9618  -2.9095   3.7707   4.3811   4.4927   4.6798

          k = 0.1411 0.0000 0.1441 ( 45245 PWs)   bands (ev):

   -45.8308 -45.8304 -45.8291 -45.8288  -9.5249  -9.1918  -8.6211  -8.4044
    -4.7365  -4.5758  -4.2168  -3.9890  -3.8539  -3.7371  -3.5917  -3.5040
    -3.4144  -3.2932  -2.9656  -2.9454   3.8763   4.4462   4.4473   4.5239

          k = 0.1411 0.0000 0.2162 ( 45248 PWs)   bands (ev):

   -45.8307 -45.8306 -45.8290 -45.8288  -9.4398  -9.3265  -8.5221  -8.4505
    -4.7116  -4.6545  -4.1447  -4.0555  -3.7327  -3.6517  -3.6116  -3.5462
    -3.3920  -3.3888  -2.9795  -2.9767   4.0329   4.2263   4.5154   4.5433

          k = 0.1411 0.1068 0.0000 ( 45258 PWs)   bands (ev):

   -45.8308 -45.8303 -45.8292 -45.8287  -9.5608  -8.9434  -8.8410  -8.4040
    -4.8077  -4.4660  -4.4549  -3.9523  -3.7465  -3.7324  -3.6318  -3.6005
    -3.3751  -3.1335  -3.0115  -2.8975   3.8467   4.3451   4.7186   4.9127

          k = 0.1411 0.1068 0.0721 ( 45224 PWs)   bands (ev):

   -45.8308 -45.8304 -45.8291 -45.8287  -9.5436  -9.0422  -8.7509  -8.4119
    -4.8085  -4.4875  -4.4125  -3.9709  -3.7808  -3.7236  -3.5988  -3.5688
    -3.3798  -3.1745  -3.0022  -2.9128   3.8827   4.3843   4.7189   4.7711

          k = 0.1411 0.1068 0.1441 ( 45219 PWs)   bands (ev):

   -45.8307 -45.8305 -45.8290 -45.8288  -9.4929  -9.1772  -8.6403  -8.4368
    -4.7918  -4.5578  -4.3079  -3.9948  -3.8377  -3.6897  -3.5765  -3.5192
    -3.3849  -3.2300  -3.0021  -2.9530   3.9834   4.4861   4.5397   4.7311

          k = 0.1411 0.1068 0.2162 ( 45243 PWs)   bands (ev):

   -45.8307 -45.8306 -45.8290 -45.8289  -9.4114  -9.3038  -8.5493  -8.4817
    -4.7384  -4.6528  -4.1870  -4.0728  -3.7853  -3.6882  -3.5959  -3.5589
    -3.3193  -3.2600  -3.0103  -2.9962   4.1335   4.3201   4.6204   4.7080

          k = 0.1411 0.2135 0.0000 ( 45240 PWs)   bands (ev):

   -45.8307 -45.8304 -45.8291 -45.8288  -9.4620  -9.0245  -8.7785  -8.4855
    -4.9304  -4.7106  -4.3982  -3.8679  -3.7511  -3.6683  -3.5651  -3.4270
    -3.3125  -3.1823  -3.1135  -2.9450   4.1600   4.5279   5.0599   5.0896

          k = 0.1411 0.2135 0.0721 ( 45224 PWs)   bands (ev):

   -45.8307 -45.8304 -45.8291 -45.8288  -9.4471  -9.0661  -8.7457  -8.4941
    -4.9163  -4.6585  -4.4205  -3.9245  -3.7793  -3.6349  -3.5797  -3.4083
    -3.3121  -3.2001  -3.0953  -2.9496   4.1899   4.5804   4.9590   5.1093

          k = 0.1411 0.2135 0.1441 ( 45213 PWs)   bands (ev):

   -45.8307 -45.8305 -45.8290 -45.8288  -9.4038  -9.1534  -8.6819  -8.5197
    -4.8607  -4.5436  -4.4794  -4.0333  -3.8105  -3.6612  -3.5676  -3.4312
    -3.2664  -3.1905  -3.0796  -2.9713   4.2744   4.6882   4.8120   5.0983

          k = 0.1411 0.2135 0.2162 ( 45195 PWs)   bands (ev):

   -45.8306 -45.8306 -45.8290 -45.8289  -9.3356  -9.2488  -8.6173  -8.5617
    -4.7580  -4.6283  -4.3461  -4.1753  -3.7956  -3.7324  -3.5361  -3.4918
    -3.1926  -3.1726  -3.0624  -3.0165   4.4019   4.5600   4.9485   5.0772

          k = 0.1411 0.3203 0.0000 ( 45241 PWs)   bands (ev):

   -45.8306 -45.8305 -45.8290 -45.8289  -9.3173  -9.1583  -8.6888  -8.5868
    -4.9735  -4.8958  -4.2718  -4.0801  -3.6298  -3.5915  -3.4172  -3.3246
    -3.2862  -3.2119  -3.1824  -3.0586   4.5598   4.7660   5.1332   5.2034

          k = 0.1411 0.3203 0.0721 ( 45225 PWs)   bands (ev):

   -45.8306 -45.8305 -45.8290 -45.8289  -9.3082  -9.1634  -8.6895  -8.5956
    -4.9418  -4.8498  -4.2972  -4.1107  -3.6744  -3.5902  -3.4626  -3.3576
    -3.2570  -3.2092  -3.1381  -3.0384   4.5780   4.7921   5.1319   5.2346

          k = 0.1411 0.3203 0.1441 ( 45219 PWs)   bands (ev):

   -45.8306 -45.8305 -45.8290 -45.8289  -9.2827  -9.1802  -8.6870  -8.6188
    -4.8469  -4.7269  -4.3829  -4.2074  -3.7148  -3.6016  -3.5531  -3.4422
    -3.1880  -3.1687  -3.0867  -3.0158   4.6265   4.8098   5.1818   5.3055

          k = 0.1411 0.3203 0.2162 ( 45214 PWs)   bands (ev):

   -45.8306 -45.8306 -45.8289 -45.8289  -9.2468  -9.2096  -8.6736  -8.6484
    -4.7022  -4.5755  -4.5077  -4.3631  -3.7027  -3.6422  -3.5819  -3.5249
    -3.1362  -3.1333  -3.0502  -3.0215   4.6925   4.7626   5.2881   5.3549

          k = 0.2822 0.0000 0.0000 ( 45228 PWs)   bands (ev):

   -45.8305 -45.8301 -45.8293 -45.8290  -9.3673  -8.8043  -8.7613  -8.4624
    -4.8174  -4.4931  -4.3401  -4.1456  -4.1433  -3.8213  -3.7983  -3.7588
    -3.5872  -3.1158  -3.0876  -3.0870   4.1398   4.3093   4.4910   4.6265

          k = 0.2822 0.0000 0.0721 ( 45245 PWs)   bands (ev):

   -45.8305 -45.8301 -45.8293 -45.8290  -9.3515  -8.9018  -8.6768  -8.4652
    -4.7991  -4.4983  -4.3428  -4.1698  -4.1457  -3.8417  -3.7990  -3.6978
    -3.5575  -3.2120  -3.0919  -3.0486   4.1643   4.3055   4.4988   4.6425

          k = 0.2822 0.0000 0.1441 ( 45263 PWs)   bands (ev):

   -45.8304 -45.8302 -45.8292 -45.8290  -9.3050  -9.0209  -8.5943  -8.4751
    -4.7456  -4.4938  -4.4113  -4.2412  -4.0703  -3.8762  -3.7709  -3.5916
    -3.5050  -3.3662  -3.1008  -3.0501   4.2242   4.3001   4.5207   4.6598

          k = 0.2822 0.0000 0.2162 ( 45232 PWs)   bands (ev):

   -45.8304 -45.8303 -45.8292 -45.8291  -9.2308  -9.1338  -8.5346  -8.4964
    -4.6612  -4.5565  -4.4120  -4.3327  -3.9717  -3.9126  -3.6887  -3.5397
    -3.5057  -3.4771  -3.1012  -3.0794   4.2781   4.2967   4.5665   4.6306

          k = 0.2822 0.1068 0.0000 ( 45278 PWs)   bands (ev):

   -45.8305 -45.8301 -45.8293 -45.8290  -9.3370  -8.8247  -8.7443  -8.4773
    -4.8462  -4.5389  -4.4409  -4.1489  -4.1016  -4.0193  -3.7320  -3.5925
    -3.5044  -3.2370  -3.0947  -2.9807   4.2280   4.4060   4.5574   4.7699

          k = 0.2822 0.1068 0.0721 ( 45248 PWs)   bands (ev):

   -45.8304 -45.8301 -45.8293 -45.8290  -9.3218  -8.9004  -8.6812  -8.4805
    -4.8306  -4.5471  -4.4145  -4.2475  -4.0196  -4.0146  -3.7400  -3.6042
    -3.4661  -3.2593  -3.1097  -2.9926   4.2505   4.4220   4.5714   4.7842

          k = 0.2822 0.1068 0.1441 ( 45249 PWs)   bands (ev):

   -45.8304 -45.8302 -45.8292 -45.8290  -9.2773  -9.0091  -8.6075  -8.4915
    -4.7861  -4.5604  -4.4144  -4.2882  -4.0132  -3.9972  -3.7272  -3.5618
    -3.4344  -3.3289  -3.1239  -3.0298   4.3128   4.4559   4.6045   4.7913

          k = 0.2822 0.1068 0.2162 ( 45231 PWs)   bands (ev):

   -45.8303 -45.8303 -45.8292 -45.8291  -9.2066  -9.1147  -8.5515  -8.5139
    -4.7167  -4.6293  -4.3807  -4.3111  -4.0238  -4.0101  -3.6480  -3.5386
    -3.4438  -3.3855  -3.1146  -3.0791   4.3942   4.4554   4.6633   4.7438

          k = 0.2822 0.2135 0.0000 ( 45260 PWs)   bands (ev):

   -45.8304 -45.8302 -45.8293 -45.8291  -9.2518  -8.8896  -8.6983  -8.5171
    -4.8699  -4.6431  -4.5885  -4.3733  -4.0944  -3.9388  -3.6161  -3.4808
    -3.3569  -3.3555  -3.1010  -2.9143   4.4733   4.6421   4.8124   5.1080

          k = 0.2822 0.2135 0.0721 ( 45243 PWs)   bands (ev):

   -45.8304 -45.8302 -45.8292 -45.8291  -9.2389  -8.9213  -8.6771  -8.5216
    -4.8619  -4.6575  -4.5513  -4.3713  -4.1214  -3.9157  -3.6298  -3.4961
    -3.3616  -3.3291  -3.1097  -2.9361   4.5064   4.6802   4.8365   5.1369

          k = 0.2822 0.2135 0.1441 ( 45234 PWs)   bands (ev):

   -45.8304 -45.8302 -45.8292 -45.8291  -9.2013  -8.9906  -8.6359  -8.5360
    -4.8371  -4.6838  -4.4816  -4.3645  -4.1340  -3.9329  -3.6672  -3.4677
    -3.3876  -3.2848  -3.1252  -2.9952   4.6035   4.7709   4.8863   5.1593

          k = 0.2822 0.2135 0.2162 ( 45234 PWs)   bands (ev):

   -45.8303 -45.8303 -45.8292 -45.8291  -9.1426  -9.0693  -8.5949  -8.5607
    -4.7931  -4.7349  -4.4043  -4.3622  -4.1055  -4.0225  -3.6375  -3.5287
    -3.3355  -3.2556  -3.1277  -3.0699   4.7388   4.8275   4.9453   5.0627

          k = 0.2822 0.3203 0.0000 ( 45273 PWs)   bands (ev):

   -45.8303 -45.8302 -45.8292 -45.8291  -9.1295  -8.9980  -8.6361  -8.5724
    -4.8073  -4.7110  -4.6929  -4.6326  -3.9874  -3.9084  -3.5523  -3.5145
    -3.3357  -3.2933  -3.0367  -2.9390   4.7772   4.8893   5.1518   5.3257

          k = 0.2822 0.3203 0.0721 ( 45260 PWs)   bands (ev):

   -45.8303 -45.8303 -45.8292 -45.8291  -9.1215  -9.0016  -8.6378  -8.5784
    -4.8202  -4.7416  -4.6443  -4.5840  -4.0259  -3.9237  -3.5358  -3.4611
    -3.3732  -3.3253  -3.0342  -2.9507   4.8249   4.9369   5.1845   5.3666

          k = 0.2822 0.3203 0.1441 ( 45267 PWs)   bands (ev):

   -45.8303 -45.8303 -45.8292 -45.8291  -9.0994  -9.0142  -8.6388  -8.5945
    -4.8275  -4.7709  -4.5598  -4.5100  -4.0660  -3.9585  -3.5802  -3.4730
    -3.3492  -3.3001  -3.0502  -2.9936   4.9540   5.0528   5.2638   5.4535

          k = 0.2822 0.3203 0.2162 ( 45244 PWs)   bands (ev):

   -45.8303 -45.8303 -45.8292 -45.8291  -9.0687  -9.0377  -8.6317  -8.6149
    -4.8160  -4.7944  -4.4922  -4.4728  -4.0438  -3.9881  -3.6507  -3.5938
    -3.2361  -3.1946  -3.1037  -3.0681   5.1095   5.1551   5.3432   5.4233

          k = 0.4233 0.0000 0.0000 ( 45230 PWs)   bands (ev):

   -45.8300 -45.8298 -45.8295 -45.8294  -9.0371  -8.6966  -8.6963  -8.6790
    -4.8329  -4.6038  -4.5740  -4.4955  -3.9971  -3.7774  -3.7774  -3.7469
    -3.5714  -3.5202  -3.1919  -3.1805   3.9884   4.1064   4.9476   4.9754

          k = 0.4233 0.0000 0.0721 ( 45239 PWs)   bands (ev):

   -45.8300 -45.8298 -45.8295 -45.8294  -9.0255  -8.7405  -8.6918  -8.6540
    -4.8178  -4.6128  -4.5377  -4.4873  -4.0550  -3.8016  -3.7939  -3.7019
    -3.5794  -3.4824  -3.2462  -3.1585   4.0334   4.1534   4.7817   5.0997

          k = 0.4233 0.0000 0.1441 ( 45283 PWs)   bands (ev):

   -45.8299 -45.8299 -45.8295 -45.8295  -8.9918  -8.8052  -8.6786  -8.6420
    -4.7750  -4.6208  -4.4791  -4.4660  -4.1189  -3.9002  -3.8275  -3.6305
    -3.5781  -3.4021  -3.3131  -3.1756   4.1581   4.2901   4.6323   5.0220

          k = 0.4233 0.0000 0.2162 ( 45271 PWs)   bands (ev):

   -45.8299 -45.8299 -45.8295 -45.8295  -8.9395  -8.8747  -8.6614  -8.6467
    -4.7136  -4.6533  -4.4438  -4.4422  -4.1064  -4.0188  -3.8037  -3.7230
    -3.4662  -3.3807  -3.3130  -3.2319   4.3269   4.4905   4.5062   4.7754

          k = 0.4233 0.1068 0.0000 ( 45222 PWs)   bands (ev):

   -45.8300 -45.8298 -45.8295 -45.8294  -9.0168  -8.7234  -8.6722  -8.6718
    -4.8992  -4.6922  -4.5294  -4.4622  -4.1131  -3.9709  -3.7831  -3.6622
    -3.4782  -3.4372  -3.1705  -3.1296   4.1265   4.2072   5.0513   5.0926

          k = 0.4233 0.1068 0.0721 ( 45252 PWs)   bands (ev):

   -45.8300 -45.8298 -45.8295 -45.8294  -9.0057  -8.7450  -8.6867  -8.6492
    -4.8879  -4.6786  -4.5365  -4.4533  -4.1693  -3.9085  -3.8007  -3.6168
    -3.5180  -3.4252  -3.2176  -3.1221   4.1695   4.2518   4.8938   5.2197

          k = 0.4233 0.1068 0.1441 ( 45277 PWs)   bands (ev):

   -45.8299 -45.8299 -45.8295 -45.8295  -8.9737  -8.7995  -8.6782  -8.6408
    -4.8513  -4.6592  -4.5607  -4.4532  -4.1801  -3.8834  -3.7944  -3.6094
    -3.4872  -3.4318  -3.2884  -3.1509   4.2884   4.3823   4.7511   5.1190

          k = 0.4233 0.1068 0.2162 ( 45283 PWs)   bands (ev):

   -45.8299 -45.8299 -45.8295 -45.8295  -8.9242  -8.8633  -8.6620  -8.6470
    -4.7878  -4.7075  -4.5404  -4.4881  -4.0930  -3.9591  -3.7610  -3.6440
    -3.4675  -3.3688  -3.3229  -3.2223   4.4498   4.5788   4.6257   4.8600

          k = 0.4233 0.2135 0.0000 ( 45279 PWs)   bands (ev):

   -45.8299 -45.8299 -45.8295 -45.8295  -8.9619  -8.7607  -8.6550  -8.6504
    -5.0064  -4.8507  -4.4605  -4.4427  -4.2798  -4.0883  -3.8019  -3.7826
    -3.3296  -3.2297  -3.1554  -3.0338   4.4864   4.5083   5.2882   5.2959

          k = 0.4233 0.2135 0.0721 ( 45261 PWs)   bands (ev):

   -45.8299 -45.8299 -45.8295 -45.8295  -8.9525  -8.7675  -8.6696  -8.6404
    -4.9980  -4.8408  -4.5056  -4.4832  -4.2701  -3.9862  -3.8469  -3.6673
    -3.3934  -3.2355  -3.1930  -3.0516   4.5245   4.5468   5.1524   5.4803

          k = 0.4233 0.2135 0.1441 ( 45264 PWs)   bands (ev):

   -45.8299 -45.8299 -45.8295 -45.8295  -8.9255  -8.7939  -8.6748  -8.6402
    -4.9677  -4.8178  -4.6295  -4.5470  -4.1720  -3.8397  -3.8042  -3.5412
    -3.4782  -3.3300  -3.2571  -3.1107   4.6298   4.6606   5.0465   5.3626

          k = 0.4233 0.2135 0.2162 ( 45245 PWs)   bands (ev):

   -45.8299 -45.8299 -45.8295 -45.8295  -8.8849  -8.8375  -8.6651  -8.6505
    -4.9088  -4.8335  -4.6835  -4.6276  -4.0179  -3.8608  -3.6755  -3.5401
    -3.4547  -3.3582  -3.3419  -3.2110   4.7728   4.8341   4.9417   5.1010

          k = 0.4233 0.3203 0.0000 ( 45257 PWs)   bands (ev):

   -45.8299 -45.8299 -45.8295 -45.8295  -8.8884  -8.8163  -8.6401  -8.6377
    -5.0498  -4.9911  -4.4879  -4.4619  -4.2497  -4.1386  -3.8763  -3.8528
    -3.2250  -3.1701  -3.0670  -3.0004   4.8592   4.8782   5.3776   5.4651

          k = 0.4233 0.3203 0.0721 ( 45246 PWs)   bands (ev):

   -45.8299 -45.8299 -45.8295 -45.8295  -8.8820  -8.8149  -8.6491  -8.6381
    -5.0428  -4.9839  -4.5457  -4.5397  -4.1952  -4.0629  -3.8477  -3.7626
    -3.2752  -3.2087  -3.0913  -3.0285   4.8927   4.9087   5.3776   5.5540

          k = 0.4233 0.3203 0.1441 ( 45258 PWs)   bands (ev):

   -45.8299 -45.8299 -45.8295 -45.8295  -8.8645  -8.8140  -8.6621  -8.6469
    -5.0176  -4.9621  -4.6768  -4.6473  -4.0674  -3.9347  -3.7165  -3.6079
    -3.3903  -3.3132  -3.1716  -3.1087   4.9828   4.9991   5.3593   5.5536

          k = 0.4233 0.3203 0.2162 ( 45237 PWs)   bands (ev):

   -45.8299 -45.8299 -45.8295 -45.8295  -8.8415  -8.8220  -8.6672  -8.6597
    -4.9726  -4.9418  -4.7662  -4.7428  -3.9122  -3.8350  -3.5970  -3.5271
    -3.4342  -3.3812  -3.2968  -3.2315   5.0973   5.1209   5.3062   5.3912

     the Fermi energy is    -0.3589 ev

!    total energy              =    -102.72739857 Ry
     estimated scf accuracy    <          1.6E-11 Ry
     smearing contrib. (-TS)   =       0.00000000 Ry
     internal energy E=F+TS    =    -102.72739857 Ry

     The total energy is F=E-TS. E is the sum of the following terms:
     one-electron contribution =     -58.15638110 Ry
     hartree contribution      =      31.65984348 Ry
     xc contribution           =     -37.13114920 Ry
     ewald contribution        =     -39.09971175 Ry

     convergence has been achieved in  14 iterations

     Forces acting on atoms (cartesian axes, Ry/au):

     atom    1 type  1   force =     0.00000000   -0.00012339   -0.00002349
     atom    2 type  1   force =     0.00000000    0.00012339   -0.00002349
     atom    3 type  1   force =    -0.00000000    0.00012339    0.00002349
     atom    4 type  1   force =    -0.00000000   -0.00012339    0.00002349
     atom    5 type  2   force =     0.00000000   -0.00011416    0.00021467
     atom    6 type  2   force =     0.00000000    0.00011416    0.00021467
     atom    7 type  2   force =     0.00000000    0.00011416   -0.00021467
     atom    8 type  2   force =     0.00000000   -0.00011416   -0.00021467
     atom    9 type  3   force =    -0.00011265    0.00013804   -0.00006640
     atom   10 type  3   force =     0.00011265   -0.00013804   -0.00006640
     atom   11 type  3   force =    -0.00011265   -0.00013804    0.00006640
     atom   12 type  3   force =     0.00011265    0.00013804    0.00006640
     atom   13 type  3   force =     0.00011265   -0.00013804    0.00006640
     atom   14 type  3   force =    -0.00011265    0.00013804    0.00006640
     atom   15 type  3   force =     0.00011265    0.00013804   -0.00006640
     atom   16 type  3   force =    -0.00011265   -0.00013804   -0.00006640
     atom   17 type  3   force =     0.00000000    0.00058548    0.00042703
     atom   18 type  3   force =     0.00000000   -0.00058548    0.00042703
     atom   19 type  3   force =     0.00000000   -0.00058548   -0.00042703
     atom   20 type  3   force =     0.00000000    0.00058548   -0.00042703
     atom   21 type  3   force =     0.00000000   -0.00030656    0.00012137
     atom   22 type  3   force =     0.00000000    0.00030656    0.00012137
     atom   23 type  3   force =    -0.00000000    0.00030656   -0.00012137
     atom   24 type  3   force =     0.00000000   -0.00030656   -0.00012137

     Total force =     0.001768     Total SCF correction =     0.000002


     Computing stress (Cartesian axis) and pressure

          total   stress  (Ry/bohr**3)                   (kbar)     P=       -0.26
  -0.00000333   0.00000000   0.00000000           -0.49        0.00        0.00
   0.00000000  -0.00000275   0.00000000            0.00       -0.40        0.00
   0.00000000   0.00000000   0.00000084            0.00        0.00        0.12


     Writing all to output data dir ./LiBH4.save/
 
     init_run     :      9.85s CPU     10.10s WALL (       2 calls)
     electrons    :    841.81s CPU    863.37s WALL (       9 calls)
     update_pot   :      9.59s CPU      9.64s WALL (       7 calls)
     forces       :     14.03s CPU     14.24s WALL (       9 calls)
     stress       :     31.09s CPU     31.45s WALL (       9 calls)

     Called by init_run:
     wfcinit      :      7.32s CPU      7.46s WALL (       2 calls)
     potinit      :      0.89s CPU      0.90s WALL (       2 calls)
     hinit0       :      1.21s CPU      1.23s WALL (       2 calls)

     Called by electrons:
     c_bands      :    732.18s CPU    749.19s WALL (     133 calls)
     sum_band     :    103.45s CPU    105.58s WALL (     133 calls)
     v_of_rho     :      2.58s CPU      2.61s WALL (     141 calls)
     newd         :      2.99s CPU      3.55s WALL (     141 calls)
     mix_rho      :      0.77s CPU      0.78s WALL (     133 calls)

     Called by c_bands:
     init_us_2    :     19.97s CPU     20.74s WALL (   18304 calls)
     init_us_2:cp :     19.84s CPU     20.67s WALL (   18304 calls)
     cegterg      :    680.13s CPU    690.64s WALL (    8512 calls)

     Called by *egterg:
     cdiaghg      :     24.18s CPU     24.45s WALL (   36485 calls)
     h_psi        :    519.01s CPU    527.74s WALL (   37125 calls)
     s_psi        :     39.87s CPU     40.39s WALL (   37125 calls)
     g_psi        :      5.49s CPU      5.56s WALL (   28485 calls)

     Called by h_psi:
     h_psi:calbec :     44.82s CPU     45.46s WALL (   37125 calls)
     vloc_psi     :    430.98s CPU    438.63s WALL (   37125 calls)
     add_vuspsi   :     39.22s CPU     39.67s WALL (   37125 calls)

     General routines
     calbec       :     60.95s CPU     61.82s WALL (   48517 calls)
     fft          :      1.29s CPU      1.32s WALL (    1784 calls)
     ffts         :      0.10s CPU      0.10s WALL (     133 calls)
     fftw         :    435.01s CPU    442.52s WALL ( 1469752 calls)
 
     Parallel routines
 
     PWSCF        :  15m 7.98s CPU  15m37.63s WALL

 
   This run was terminated on:  13:52:19   8Dec2023            

=------------------------------------------------------------------------------=
   JOB DONE.
=------------------------------------------------------------------------------=
