
     Program PWSCF v.7.1 starts on  6Dec2023 at 22:27:20 

     This program is part of the open-source Quantum ESPRESSO suite
     for quantum simulation of materials; please cite
         "P. Giannozzi et al., J. Phys.:Condens. Matter 21 395502 (2009);
         "P. Giannozzi et al., J. Phys.:Condens. Matter 29 465901 (2017);
         "P. Giannozzi et al., J. Chem. Phys. 152 154105 (2020);
          URL http://www.quantum-espresso.org", 
     in publications or presentations arising from this work. More details at
     http://www.quantum-espresso.org/quote

     Parallel version (MPI & OpenMP), running on      28 processor cores
     Number of MPI processes:                28
     Threads/MPI process:                     1

     MPI processes distributed on     1 nodes
     121231 MiB available memory on the printing compute node when the environment starts
 
     Reading input from LiH.in

     Current dimensions of program PWSCF are:
     Max number of different atomic species (ntypx) = 10
     Max number of k-points (npk) =  40000
     Max angular momentum in pseudopotentials (lmaxx) =  4

     IMPORTANT: XC functional enforced from input :
     Exchange-correlation= PBE
                           (   1   4   3   4   0   0   0)
     Any further DFT definition will be discarded
     Please, verify this is what you really want

     Message from routine set_cutoff:
     ecutrho < 4*ecutwfc, are you sure?
     Found identity + (  0.0000 -0.5000 -0.5000) symmetry
     This is a supercell, fractional translations are disabled
     Message from routine setup:
     using ibrav=0 with symmetry is DISCOURAGED, use correct ibrav instead
 
     K-points division:     npool     =       2
     R & G space division:  proc/nbgrp/npool/nimage =      14
     Subspace diagonalization in iterative solution of the eigenvalue problem:
     a serial algorithm will be used

 
     Parallelization info
     --------------------
     sticks:   dense  smooth     PW     G-vecs:    dense   smooth      PW
     Min          65      65     25                 1485     1485     375
     Max          66      66     27                 1488     1488     376
     Sum         917     917    365                20815    20815    5257
 
     Using Slab Decomposition
 


     bravais-lattice index     =            0
     lattice parameter (alat)  =       7.5915  a.u.
     unit-cell volume          =     437.5019 (a.u.)^3
     number of atoms/cell      =            8
     number of atomic types    =            2
     number of electrons       =        16.00
     number of Kohn-Sham states=           12
     kinetic-energy cutoff     =      70.0000  Ry
     charge density cutoff     =     200.0000  Ry
     scf convergence threshold =      1.0E-08
     mixing beta               =       0.7000
     number of iterations used =            8  plain     mixing
     energy convergence thresh.=      1.0E-04
     force convergence thresh. =      1.0E-03
     press convergence thresh. =      5.0E-01
     Exchange-correlation= PBE
                           (   1   4   3   4   0   0   0)
     nstep                     =           50


     celldm(1)=   7.591483  celldm(2)=   0.000000  celldm(3)=   0.000000
     celldm(4)=   0.000000  celldm(5)=   0.000000  celldm(6)=   0.000000

     crystal axes: (cart. coord. in units of alat)
               a(1) = (   1.000000   0.000000   0.000000 )  
               a(2) = (   0.000000   1.000000   0.000000 )  
               a(3) = (   0.000000   0.000000   1.000000 )  

     reciprocal axes: (cart. coord. in units 2 pi/alat)
               b(1) = (  1.000000  0.000000  0.000000 )  
               b(2) = (  0.000000  1.000000  0.000000 )  
               b(3) = (  0.000000  0.000000  1.000000 )  


     PseudoPot. # 1 for Li read from file:
     /scratch/antwerpen/209/vsc20922/pseudos/li_pbe_v1.4.uspp.F.UPF
     MD5 check sum: e912e257baa3777c20ea3d68f190483c
     Pseudo is Ultrasoft, Zval =  3.0
     Generated by new atomic code, or converted to UPF format
     Using radial grid of  751 points,  5 beta functions with: 
                l(1) =   0
                l(2) =   0
                l(3) =   0
                l(4) =   1
                l(5) =   1
     Q(r) pseudized with 10 coefficients,  rinner =    1.150   1.150   1.150


     PseudoPot. # 2 for H  read from file:
     /scratch/antwerpen/209/vsc20922/pseudos/H.pbe-rrkjus_psl.1.0.0.UPF
     MD5 check sum: f52b6d4d1c606e5624b1dc7b2218f220
     Pseudo is Ultrasoft, Zval =  1.0
     Generated using "atomic" code by A. Dal Corso  v.5.1
     Using radial grid of  929 points,  2 beta functions with: 
                l(1) =   0
                l(2) =   0
     Q(r) pseudized with 0 coefficients 


     atomic species   valence    mass     pseudopotential
        Li             3.00     6.96750     Li( 1.00)
        H              1.00     1.00750     H ( 1.00)

     48 Sym. Ops., with inversion, found



   Cartesian axes

     site n.     atom                  positions (alat units)
         1           Li  tau(   1) = (   0.0000000   0.0000000   0.0000000  )
         2           Li  tau(   2) = (   0.0000000   0.5000000   0.5000000  )
         3           Li  tau(   3) = (   0.5000000   0.0000000   0.5000000  )
         4           Li  tau(   4) = (   0.5000000   0.5000000   0.0000000  )
         5           H   tau(   5) = (   0.0000000   0.0000000   0.5000000  )
         6           H   tau(   6) = (   0.0000000   0.5000000   0.0000000  )
         7           H   tau(   7) = (   0.5000000   0.0000000   0.0000000  )
         8           H   tau(   8) = (   0.5000000   0.5000000   0.5000000  )

     number of k points=    10  Marzari-Vanderbilt smearing, width (Ry)=  0.0050
                       cart. coord. in units 2pi/alat
        k(    1) = (   0.0000000   0.0000000   0.0000000), wk =   0.0160000
        k(    2) = (   0.0000000   0.0000000   0.2000000), wk =   0.0960000
        k(    3) = (   0.0000000   0.0000000   0.4000000), wk =   0.0960000
        k(    4) = (   0.0000000   0.2000000   0.2000000), wk =   0.1920000
        k(    5) = (   0.0000000   0.2000000   0.4000000), wk =   0.3840000
        k(    6) = (   0.0000000   0.4000000   0.4000000), wk =   0.1920000
        k(    7) = (   0.2000000   0.2000000   0.2000000), wk =   0.1280000
        k(    8) = (   0.2000000   0.2000000   0.4000000), wk =   0.3840000
        k(    9) = (   0.2000000   0.4000000   0.4000000), wk =   0.3840000
        k(   10) = (   0.4000000   0.4000000   0.4000000), wk =   0.1280000

     Dense  grid:    20815 G-vectors     FFT dimensions: (  36,  36,  36)

     Estimated max dynamical RAM per process >       4.14 MB

     Estimated total dynamical RAM >     110.97 MB

     Initial potential from superposition of free atoms

     starting charge      14.1970, renormalised to      16.0000
     Starting wfcs are   24 randomized atomic wfcs

     total cpu time spent up to now is        0.3 secs

     Self-consistent Calculation

     iteration #  1     ecut=    70.00 Ry     beta= 0.70
     Davidson diagonalization with overlap
     ethr =  1.00E-02,  avg # of iterations =  2.5

     total cpu time spent up to now is        0.4 secs

     total energy              =     -62.72284134 Ry
     estimated scf accuracy    <       0.61601427 Ry

     iteration #  2     ecut=    70.00 Ry     beta= 0.70
     Davidson diagonalization with overlap
     ethr =  3.85E-03,  avg # of iterations =  2.0

     total cpu time spent up to now is        0.4 secs

     total energy              =     -62.78787510 Ry
     estimated scf accuracy    <       0.01477358 Ry

     iteration #  3     ecut=    70.00 Ry     beta= 0.70
     Davidson diagonalization with overlap
     ethr =  9.23E-05,  avg # of iterations =  3.2

     total cpu time spent up to now is        0.5 secs

     total energy              =     -62.79887139 Ry
     estimated scf accuracy    <       0.00104287 Ry

     iteration #  4     ecut=    70.00 Ry     beta= 0.70
     Davidson diagonalization with overlap
     ethr =  6.52E-06,  avg # of iterations =  2.9

     total cpu time spent up to now is        0.5 secs

     total energy              =     -62.79907307 Ry
     estimated scf accuracy    <       0.00001082 Ry

     iteration #  5     ecut=    70.00 Ry     beta= 0.70
     Davidson diagonalization with overlap
     ethr =  6.76E-08,  avg # of iterations =  4.9

     total cpu time spent up to now is        0.6 secs

     total energy              =     -62.79909005 Ry
     estimated scf accuracy    <       0.00000067 Ry

     iteration #  6     ecut=    70.00 Ry     beta= 0.70
     Davidson diagonalization with overlap
     ethr =  4.19E-09,  avg # of iterations =  3.4

     total cpu time spent up to now is        0.6 secs

     total energy              =     -62.79909023 Ry
     estimated scf accuracy    <       0.00000063 Ry

     iteration #  7     ecut=    70.00 Ry     beta= 0.70
     Davidson diagonalization with overlap
     ethr =  3.93E-09,  avg # of iterations =  1.1

     total cpu time spent up to now is        0.7 secs

     total energy              =     -62.79909025 Ry
     estimated scf accuracy    <       0.00000004 Ry

     iteration #  8     ecut=    70.00 Ry     beta= 0.70
     Davidson diagonalization with overlap
     ethr =  2.76E-10,  avg # of iterations =  3.5

     total cpu time spent up to now is        0.7 secs

     End of self-consistent calculation

          k = 0.0000 0.0000 0.0000 (  4385 PWs)   bands (ev):

   -43.6619 -43.6030 -43.6030 -43.6030  -4.8130   0.6001   0.6001   0.6001
     3.5876   3.5876   3.5876  11.3829

          k = 0.0000 0.0000 0.2000 (  4324 PWs)   bands (ev):

   -43.6562 -43.6085 -43.6029 -43.6029  -4.5752  -0.8393   0.5199   0.5199
     3.9535   3.9535   5.6510   9.3018

          k = 0.0000 0.0000 0.4000 (  4332 PWs)   bands (ev):

   -43.6413 -43.6230 -43.6027 -43.6027  -3.8458  -2.5922   0.3954   0.3955
     5.0481   5.0481   6.8559   6.8559

          k = 0.0000 0.2000 0.2000 (  4326 PWs)   bands (ev):

   -43.6510 -43.6078 -43.6078 -43.6033  -4.3436  -0.7549  -0.7549   0.3185
     4.3194   5.7798   5.7798   8.6331

          k = 0.0000 0.2000 0.4000 (  4312 PWs)   bands (ev):

   -43.6375 -43.6210 -43.6063 -43.6045  -3.6341  -2.4207  -0.5047  -0.1098
     5.4136   6.3032   7.2205   7.3412

          k = 0.0000 0.4000 0.4000 (  4322 PWs)   bands (ev):

   -43.6276 -43.6157 -43.6157 -43.6094  -2.9888  -1.9052  -1.9052  -1.0735
     6.5066   8.0238   8.4490   8.4493

          k = 0.2000 0.2000 0.2000 (  4311 PWs)   bands (ev):

   -43.6463 -43.6077 -43.6077 -43.6077  -4.1206  -0.7483  -0.7483  -0.7483
     5.7182   5.7182   5.7182   9.2472

          k = 0.2000 0.2000 0.4000 (  4330 PWs)   bands (ev):

   -43.6342 -43.6195 -43.6076 -43.6076  -3.4391  -2.2845  -0.7399  -0.7399
     5.7145   5.7145   7.8557   8.4671

          k = 0.2000 0.4000 0.4000 (  4345 PWs)   bands (ev):

   -43.6258 -43.6156 -43.6156 -43.6110  -2.8500  -1.8882  -1.8882  -1.3033
     5.7652   6.5794   6.5794   7.9627

          k = 0.4000 0.4000 0.4000 (  4353 PWs)   bands (ev):

   -43.6210 -43.6154 -43.6154 -43.6154  -2.4478  -1.8603  -1.8603  -1.8603
     5.6399   5.6399   5.6399   6.4277

     the Fermi energy is     1.4872 ev

!    total energy              =     -62.79909026 Ry
     estimated scf accuracy    <          6.8E-10 Ry
     smearing contrib. (-TS)   =       0.00000000 Ry
     internal energy E=F+TS    =     -62.79909026 Ry

     The total energy is F=E-TS. E is the sum of the following terms:
     one-electron contribution =     -31.87317635 Ry
     hartree contribution      =      13.30487032 Ry
     xc contribution           =     -16.62773725 Ry
     ewald contribution        =     -27.60304698 Ry

     convergence has been achieved in   8 iterations

     Forces acting on atoms (cartesian axes, Ry/au):

     atom    1 type  1   force =     0.00000000    0.00000000    0.00000000
     atom    2 type  1   force =     0.00000000    0.00000000    0.00000000
     atom    3 type  1   force =     0.00000000    0.00000000    0.00000000
     atom    4 type  1   force =     0.00000000    0.00000000    0.00000000
     atom    5 type  2   force =     0.00000000    0.00000000    0.00000000
     atom    6 type  2   force =     0.00000000    0.00000000    0.00000000
     atom    7 type  2   force =     0.00000000    0.00000000    0.00000000
     atom    8 type  2   force =     0.00000000    0.00000000    0.00000000

     Total force =     0.000000     Total SCF correction =     0.000000


     Computing stress (Cartesian axis) and pressure

          total   stress  (Ry/bohr**3)                   (kbar)     P=       -2.18
  -0.00001482   0.00000000   0.00000000           -2.18        0.00        0.00
   0.00000000  -0.00001482   0.00000000            0.00       -2.18        0.00
   0.00000000   0.00000000  -0.00001482            0.00        0.00       -2.18


     BFGS Geometry Optimization
     Energy error            =      0.0E+00 Ry
     Gradient error          =      0.0E+00 Ry/Bohr
     Cell gradient error     =      2.2E+00 kbar

     number of scf cycles    =   1
     number of bfgs steps    =   0

     enthalpy           new  =     -62.7990902580 Ry

     new trust radius        =       0.0015494956 bohr
     new conv_thr            =       0.0000000100 Ry

     new unit-cell volume =    437.01592 a.u.^3 (    64.75908 Ang^3 )
     density =      0.81797 g/cm^3

CELL_PARAMETERS (alat=  7.59148338)
   0.999629601   0.000000000   0.000000000
   0.000000000   0.999629601   0.000000000
   0.000000000   0.000000000   0.999629601

ATOMIC_POSITIONS (crystal)
Li            0.0000000000        0.0000000000        0.0000000000
Li            0.0000000000        0.5000000000        0.5000000000
Li            0.5000000000        0.0000000000        0.5000000000
Li            0.5000000000        0.5000000000        0.0000000000
H             0.0000000000        0.0000000000        0.5000000000
H             0.0000000000        0.5000000000        0.0000000000
H             0.5000000000        0.0000000000        0.0000000000
H             0.5000000000        0.5000000000        0.5000000000



     Writing config-only to output data dir ./LiH.save/
     NEW-OLD atomic charge density approx. for the potential
     extrapolated charge   15.98421, renormalised to   16.00000

     total cpu time spent up to now is        1.1 secs

     Self-consistent Calculation

     iteration #  1     ecut=    70.00 Ry     beta= 0.70
     Davidson diagonalization with overlap
     ethr =  1.00E-06,  avg # of iterations =  2.0

     Threshold (ethr) on eigenvalues was too large:
     Diagonalizing with lowered threshold

     Davidson diagonalization with overlap
     ethr =  8.30E-09,  avg # of iterations =  1.4

     total cpu time spent up to now is        1.2 secs

     total energy              =     -62.79909445 Ry
     estimated scf accuracy    <       0.00000138 Ry

     iteration #  2     ecut=    70.00 Ry     beta= 0.70
     Davidson diagonalization with overlap
     ethr =  8.64E-09,  avg # of iterations =  4.1

     total cpu time spent up to now is        1.2 secs

     total energy              =     -62.79909688 Ry
     estimated scf accuracy    <       0.00000013 Ry

     iteration #  3     ecut=    70.00 Ry     beta= 0.70
     Davidson diagonalization with overlap
     ethr =  8.25E-10,  avg # of iterations =  1.9

     total cpu time spent up to now is        1.3 secs

     total energy              =     -62.79909688 Ry
     estimated scf accuracy    <       0.00000002 Ry

     iteration #  4     ecut=    70.00 Ry     beta= 0.70
     Davidson diagonalization with overlap
     ethr =  1.44E-10,  avg # of iterations =  2.0

     total cpu time spent up to now is        1.3 secs

     End of self-consistent calculation

          k = 0.0000 0.0000 0.0000 (  4385 PWs)   bands (ev):

   -43.6551 -43.5960 -43.5960 -43.5960  -4.8114   0.6058   0.6058   0.6058
     3.5925   3.5925   3.5925  11.3940

          k = 0.0000 0.0000 0.2001 (  4324 PWs)   bands (ev):

   -43.6494 -43.6015 -43.5959 -43.5959  -4.5736  -0.8353   0.5254   0.5254
     3.9588   3.9588   5.6584   9.3111

          k = 0.0000 0.0000 0.4001 (  4332 PWs)   bands (ev):

   -43.6344 -43.6161 -43.5957 -43.5957  -3.8438  -2.5895   0.4007   0.4007
     5.0542   5.0542   6.8633   6.8633

          k = 0.0000 0.2001 0.2001 (  4326 PWs)   bands (ev):

   -43.6441 -43.6008 -43.6008 -43.5963  -4.3419  -0.7509  -0.7509   0.3237
     4.3249   5.7872   5.7872   8.6428

          k = 0.0000 0.2001 0.4001 (  4312 PWs)   bands (ev):

   -43.6306 -43.6140 -43.5993 -43.5975  -3.6320  -2.4180  -0.5006  -0.1052
     5.4199   6.3111   7.2282   7.3500

          k = 0.0000 0.4001 0.4001 (  4322 PWs)   bands (ev):

   -43.6207 -43.6087 -43.6087 -43.6024  -2.9865  -1.9022  -1.9022  -1.0699
     6.5137   8.0342   8.4597   8.4600

          k = 0.2001 0.2001 0.2001 (  4311 PWs)   bands (ev):

   -43.6395 -43.6007 -43.6007 -43.6007  -4.1188  -0.7443  -0.7443  -0.7443
     5.7255   5.7255   5.7255   9.2573

          k = 0.2001 0.2001 0.4001 (  4330 PWs)   bands (ev):

   -43.6273 -43.6125 -43.6005 -43.6005  -3.4370  -2.2817  -0.7360  -0.7360
     5.7219   5.7219   7.8653   8.4765

          k = 0.2001 0.4001 0.4001 (  4345 PWs)   bands (ev):

   -43.6188 -43.6086 -43.6086 -43.6041  -2.8477  -1.8854  -1.8854  -1.3001
     5.7730   6.5881   6.5881   7.9726

          k = 0.4001 0.4001 0.4001 (  4353 PWs)   bands (ev):

   -43.6141 -43.6084 -43.6084 -43.6084  -2.4454  -1.8575  -1.8575  -1.8575
     5.6482   5.6482   5.6482   6.4367

     the Fermi energy is     1.4975 ev

!    total energy              =     -62.79909688 Ry
     estimated scf accuracy    <          4.7E-11 Ry
     smearing contrib. (-TS)   =       0.00000000 Ry
     internal energy E=F+TS    =     -62.79909688 Ry

     The total energy is F=E-TS. E is the sum of the following terms:
     one-electron contribution =     -31.85789525 Ry
     hartree contribution      =      13.30105920 Ry
     xc contribution           =     -16.62898592 Ry
     ewald contribution        =     -27.61327492 Ry

     convergence has been achieved in   4 iterations

     Forces acting on atoms (cartesian axes, Ry/au):

     atom    1 type  1   force =     0.00000000    0.00000000    0.00000000
     atom    2 type  1   force =     0.00000000    0.00000000    0.00000000
     atom    3 type  1   force =     0.00000000    0.00000000    0.00000000
     atom    4 type  1   force =     0.00000000    0.00000000    0.00000000
     atom    5 type  2   force =     0.00000000    0.00000000    0.00000000
     atom    6 type  2   force =     0.00000000    0.00000000    0.00000000
     atom    7 type  2   force =     0.00000000    0.00000000    0.00000000
     atom    8 type  2   force =     0.00000000    0.00000000    0.00000000

     Total force =     0.000000     Total SCF correction =     0.000000


     Computing stress (Cartesian axis) and pressure

          total   stress  (Ry/bohr**3)                   (kbar)     P=       -1.82
  -0.00001234   0.00000000   0.00000000           -1.82        0.00        0.00
   0.00000000  -0.00001234   0.00000000            0.00       -1.82        0.00
   0.00000000   0.00000000  -0.00001234            0.00        0.00       -1.82

     Energy error            =      6.6E-06 Ry
     Gradient error          =      0.0E+00 Ry/Bohr
     Cell gradient error     =      1.8E+00 kbar

     number of scf cycles    =   2
     number of bfgs steps    =   1

     enthalpy           old  =     -62.7990902580 Ry
     enthalpy           new  =     -62.7990968823 Ry

     CASE: enthalpy          _new < enthalpy          _old


     WARNING: bfgs curvature condition failed, Theta= 0.961
     new trust radius        =       0.0023238129 bohr
     new conv_thr            =            1.0E-10 Ry

     new unit-cell volume =    436.28764 a.u.^3 (    64.65116 Ang^3 )
     density =      0.81934 g/cm^3

CELL_PARAMETERS (alat=  7.59148338)
   0.999074001   0.000000000   0.000000000
   0.000000000   0.999074001   0.000000000
   0.000000000   0.000000000   0.999074001

ATOMIC_POSITIONS (crystal)
Li            0.0000000000        0.0000000000        0.0000000000
Li            0.0000000000        0.5000000000        0.5000000000
Li            0.5000000000        0.0000000000        0.5000000000
Li            0.5000000000        0.5000000000        0.0000000000
H             0.0000000000        0.0000000000        0.5000000000
H             0.0000000000        0.5000000000        0.0000000000
H             0.5000000000        0.0000000000        0.0000000000
H             0.5000000000        0.5000000000        0.5000000000



     Writing config-only to output data dir ./LiH.save/
     NEW-OLD atomic charge density approx. for the potential
     extrapolated charge   15.97630, renormalised to   16.00000

     total cpu time spent up to now is        1.6 secs

     Self-consistent Calculation

     iteration #  1     ecut=    70.00 Ry     beta= 0.70
     Davidson diagonalization with overlap
     ethr =  1.00E-06,  avg # of iterations =  2.0

     Threshold (ethr) on eigenvalues was too large:
     Diagonalizing with lowered threshold

     Davidson diagonalization with overlap
     ethr =  1.90E-08,  avg # of iterations =  1.1

     total cpu time spent up to now is        1.7 secs

     total energy              =     -62.79909879 Ry
     estimated scf accuracy    <       0.00000320 Ry

     iteration #  2     ecut=    70.00 Ry     beta= 0.70
     Davidson diagonalization with overlap
     ethr =  2.00E-08,  avg # of iterations =  4.0

     total cpu time spent up to now is        1.8 secs

     total energy              =     -62.79910435 Ry
     estimated scf accuracy    <       0.00000030 Ry

     iteration #  3     ecut=    70.00 Ry     beta= 0.70
     Davidson diagonalization with overlap
     ethr =  1.89E-09,  avg # of iterations =  1.8

     total cpu time spent up to now is        1.8 secs

     total energy              =     -62.79910435 Ry
     estimated scf accuracy    <       0.00000005 Ry

     iteration #  4     ecut=    70.00 Ry     beta= 0.70
     Davidson diagonalization with overlap
     ethr =  3.25E-10,  avg # of iterations =  2.0

     total cpu time spent up to now is        1.8 secs

     End of self-consistent calculation

          k = 0.0000 0.0000 0.0000 (  4385 PWs)   bands (ev):

   -43.6449 -43.5854 -43.5854 -43.5854  -4.8090   0.6145   0.6145   0.6145
     3.6000   3.6000   3.6000  11.4109

          k = 0.0000 0.0000 0.2002 (  4324 PWs)   bands (ev):

   -43.6391 -43.5910 -43.5853 -43.5853  -4.5711  -0.8293   0.5338   0.5338
     3.9666   3.9666   5.6696   9.3252

          k = 0.0000 0.0000 0.4004 (  4332 PWs)   bands (ev):

   -43.6241 -43.6057 -43.5851 -43.5851  -3.8408  -2.5854   0.4086   0.4086
     5.0633   5.0633   6.8745   6.8745

          k = 0.0000 0.2002 0.2002 (  4326 PWs)   bands (ev):

   -43.6339 -43.5903 -43.5903 -43.5857  -4.3393  -0.7448  -0.7448   0.3315
     4.3332   5.7984   5.7984   8.6573

          k = 0.0000 0.2002 0.4004 (  4312 PWs)   bands (ev):

   -43.6202 -43.6036 -43.5887 -43.5869  -3.6289  -2.4138  -0.4943  -0.0983
     5.4295   6.3229   7.2398   7.3632

          k = 0.0000 0.4004 0.4004 (  4322 PWs)   bands (ev):

   -43.6103 -43.5983 -43.5983 -43.5919  -2.9830  -1.8977  -1.8977  -1.0645
     6.5245   8.0500   8.4758   8.4762

          k = 0.2002 0.2002 0.2002 (  4311 PWs)   bands (ev):

   -43.6292 -43.5902 -43.5902 -43.5902  -4.1160  -0.7383  -0.7383  -0.7383
     5.7365   5.7365   5.7365   9.2724

          k = 0.2002 0.2002 0.4004 (  4330 PWs)   bands (ev):

   -43.6169 -43.6020 -43.5900 -43.5900  -3.4338  -2.2775  -0.7302  -0.7302
     5.7330   5.7330   7.8798   8.4906

          k = 0.2002 0.4004 0.4004 (  4345 PWs)   bands (ev):

   -43.6084 -43.5981 -43.5981 -43.5935  -2.8442  -1.8810  -1.8810  -1.2951
     5.7847   6.6011   6.6011   7.9875

          k = 0.4004 0.4004 0.4004 (  4353 PWs)   bands (ev):

   -43.6036 -43.5979 -43.5979 -43.5979  -2.4417  -1.8534  -1.8534  -1.8534
     5.6607   5.6607   5.6607   6.4503

     the Fermi energy is     1.5131 ev

!    total energy              =     -62.79910436 Ry
     estimated scf accuracy    <          4.6E-11 Ry
     smearing contrib. (-TS)   =       0.00000000 Ry
     internal energy E=F+TS    =     -62.79910436 Ry

     The total energy is F=E-TS. E is the sum of the following terms:
     one-electron contribution =     -31.83498133 Ry
     hartree contribution      =      13.29536227 Ry
     xc contribution           =     -16.63085425 Ry
     ewald contribution        =     -27.62863105 Ry

     convergence has been achieved in   4 iterations

     Forces acting on atoms (cartesian axes, Ry/au):

     atom    1 type  1   force =     0.00000000    0.00000000    0.00000000
     atom    2 type  1   force =     0.00000000    0.00000000    0.00000000
     atom    3 type  1   force =     0.00000000    0.00000000    0.00000000
     atom    4 type  1   force =     0.00000000    0.00000000    0.00000000
     atom    5 type  2   force =     0.00000000    0.00000000    0.00000000
     atom    6 type  2   force =     0.00000000    0.00000000    0.00000000
     atom    7 type  2   force =     0.00000000    0.00000000    0.00000000
     atom    8 type  2   force =     0.00000000    0.00000000    0.00000000

     Total force =     0.000000     Total SCF correction =     0.000000


     Computing stress (Cartesian axis) and pressure

          total   stress  (Ry/bohr**3)                   (kbar)     P=       -1.24
  -0.00000840   0.00000000   0.00000000           -1.24        0.00        0.00
   0.00000000  -0.00000840   0.00000000            0.00       -1.24        0.00
   0.00000000   0.00000000  -0.00000840            0.00        0.00       -1.24

     Energy error            =      7.5E-06 Ry
     Gradient error          =      0.0E+00 Ry/Bohr
     Cell gradient error     =      1.2E+00 kbar

     number of scf cycles    =   3
     number of bfgs steps    =   2

     enthalpy           old  =     -62.7990968823 Ry
     enthalpy           new  =     -62.7991043551 Ry

     CASE: enthalpy          _new < enthalpy          _old

     new trust radius        =       0.0034847505 bohr
     new conv_thr            =            1.0E-10 Ry

     new unit-cell volume =    435.19673 a.u.^3 (    64.48950 Ang^3 )
     density =      0.82139 g/cm^3

CELL_PARAMETERS (alat=  7.59148338)
   0.998240602   0.000000000   0.000000000
   0.000000000   0.998240602   0.000000000
   0.000000000   0.000000000   0.998240602

ATOMIC_POSITIONS (crystal)
Li            0.0000000000        0.0000000000        0.0000000000
Li            0.0000000000        0.5000000000        0.5000000000
Li            0.5000000000        0.0000000000        0.5000000000
Li            0.5000000000        0.5000000000        0.0000000000
H             0.0000000000        0.0000000000        0.5000000000
H             0.0000000000        0.5000000000        0.0000000000
H             0.5000000000        0.0000000000        0.0000000000
H             0.5000000000        0.5000000000        0.5000000000



     Writing config-only to output data dir ./LiH.save/
     NEW-OLD atomic charge density approx. for the potential
     extrapolated charge   15.96441, renormalised to   16.00000

     total cpu time spent up to now is        2.2 secs

     Self-consistent Calculation

     iteration #  1     ecut=    70.00 Ry     beta= 0.70
     Davidson diagonalization with overlap
     ethr =  1.00E-06,  avg # of iterations =  2.0

     Threshold (ethr) on eigenvalues was too large:
     Diagonalizing with lowered threshold

     Davidson diagonalization with overlap
     ethr =  4.29E-08,  avg # of iterations =  1.0

     total cpu time spent up to now is        2.3 secs

     total energy              =     -62.79909744 Ry
     estimated scf accuracy    <       0.00000725 Ry

     iteration #  2     ecut=    70.00 Ry     beta= 0.70
     Davidson diagonalization with overlap
     ethr =  4.53E-08,  avg # of iterations =  4.0

     total cpu time spent up to now is        2.3 secs

     total energy              =     -62.79911000 Ry
     estimated scf accuracy    <       0.00000068 Ry

     iteration #  3     ecut=    70.00 Ry     beta= 0.70
     Davidson diagonalization with overlap
     ethr =  4.26E-09,  avg # of iterations =  1.8

     total cpu time spent up to now is        2.4 secs

     total energy              =     -62.79910998 Ry
     estimated scf accuracy    <       0.00000012 Ry

     iteration #  4     ecut=    70.00 Ry     beta= 0.70
     Davidson diagonalization with overlap
     ethr =  7.27E-10,  avg # of iterations =  2.0

     total cpu time spent up to now is        2.4 secs

     End of self-consistent calculation

          k = 0.0000 0.0000 0.0000 (  4385 PWs)   bands (ev):

   -43.6296 -43.5695 -43.5695 -43.5695  -4.8054   0.6276   0.6276   0.6276
     3.6112   3.6112   3.6112  11.4361

          k = 0.0000 0.0000 0.2004 (  4324 PWs)   bands (ev):

   -43.6238 -43.5751 -43.5694 -43.5694  -4.5673  -0.8201   0.5464   0.5464
     3.9785   3.9785   5.6864   9.3463

          k = 0.0000 0.0000 0.4007 (  4332 PWs)   bands (ev):

   -43.6086 -43.5900 -43.5692 -43.5692  -3.8363  -2.5793   0.4205   0.4205
     5.0770   5.0770   6.8913   6.8913

          k = 0.0000 0.2004 0.2004 (  4326 PWs)   bands (ev):

   -43.6185 -43.5745 -43.5745 -43.5698  -4.3353  -0.7356  -0.7356   0.3433
     4.3456   5.8153   5.8153   8.6792

          k = 0.0000 0.2004 0.4007 (  4312 PWs)   bands (ev):

   -43.6047 -43.5879 -43.5729 -43.5711  -3.6243  -2.4076  -0.4848  -0.0879
     5.4438   6.3407   7.2573   7.3832

          k = 0.0000 0.4007 0.4007 (  4322 PWs)   bands (ev):

   -43.5947 -43.5825 -43.5825 -43.5761  -2.9777  -1.8909  -1.8909  -1.0564
     6.5407   8.0737   8.5000   8.5005

          k = 0.2004 0.2004 0.2004 (  4311 PWs)   bands (ev):

   -43.6137 -43.5744 -43.5744 -43.5744  -4.1119  -0.7293  -0.7293  -0.7293
     5.7530   5.7530   5.7530   9.2951

          k = 0.2004 0.2004 0.4007 (  4330 PWs)   bands (ev):

   -43.6014 -43.5863 -43.5742 -43.5742  -3.4290  -2.2713  -0.7214  -0.7214
     5.7496   5.7496   7.9016   8.5117

          k = 0.2004 0.4007 0.4007 (  4345 PWs)   bands (ev):

   -43.5928 -43.5824 -43.5824 -43.5777  -2.8388  -1.8744  -1.8744  -1.2876
     5.8024   6.6206   6.6206   8.0099

          k = 0.4007 0.4007 0.4007 (  4353 PWs)   bands (ev):

   -43.5879 -43.5822 -43.5822 -43.5822  -2.4362  -1.8471  -1.8471  -1.8471
     5.6796   5.6796   5.6796   6.4706

     the Fermi energy is     1.5365 ev

!    total energy              =     -62.79911000 Ry
     estimated scf accuracy    <          7.7E-11 Ry
     smearing contrib. (-TS)   =       0.00000000 Ry
     internal energy E=F+TS    =     -62.79911000 Ry

     The total energy is F=E-TS. E is the sum of the following terms:
     one-electron contribution =     -31.80056257 Ry
     hartree contribution      =      13.28681607 Ry
     xc contribution           =     -16.63366619 Ry
     ewald contribution        =     -27.65169730 Ry

     convergence has been achieved in   4 iterations

     Forces acting on atoms (cartesian axes, Ry/au):

     atom    1 type  1   force =     0.00000000    0.00000000    0.00000000
     atom    2 type  1   force =     0.00000000    0.00000000    0.00000000
     atom    3 type  1   force =     0.00000000    0.00000000    0.00000000
     atom    4 type  1   force =     0.00000000    0.00000000    0.00000000
     atom    5 type  2   force =     0.00000000    0.00000000    0.00000000
     atom    6 type  2   force =     0.00000000    0.00000000    0.00000000
     atom    7 type  2   force =     0.00000000    0.00000000    0.00000000
     atom    8 type  2   force =     0.00000000    0.00000000    0.00000000

     Total force =     0.000000     Total SCF correction =     0.000000


     Computing stress (Cartesian axis) and pressure

          total   stress  (Ry/bohr**3)                   (kbar)     P=       -0.35
  -0.00000238   0.00000000   0.00000000           -0.35        0.00        0.00
   0.00000000  -0.00000238   0.00000000            0.00       -0.35        0.00
   0.00000000   0.00000000  -0.00000238            0.00        0.00       -0.35

     Energy error            =      5.6E-06 Ry
     Gradient error          =      0.0E+00 Ry/Bohr
     Cell gradient error     =      3.5E-01 kbar

     bfgs converged in   4 scf cycles and   3 bfgs steps
     (criteria: energy <  1.0E-04 Ry, force <  1.0E-03 Ry/Bohr, cell <  5.0E-01 kbar)

     End of BFGS Geometry Optimization

     Final enthalpy           =     -62.7991100007 Ry

     File ./LiH.bfgs deleted, as requested
Begin final coordinates
     new unit-cell volume =    435.19673 a.u.^3 (    64.48950 Ang^3 )
     density =      0.82139 g/cm^3

CELL_PARAMETERS (alat=  7.59148338)
   0.998240602   0.000000000   0.000000000
   0.000000000   0.998240602   0.000000000
   0.000000000   0.000000000   0.998240602

ATOMIC_POSITIONS (crystal)
Li            0.0000000000        0.0000000000        0.0000000000
Li            0.0000000000        0.5000000000        0.5000000000
Li            0.5000000000        0.0000000000        0.5000000000
Li            0.5000000000        0.5000000000        0.0000000000
H             0.0000000000        0.0000000000        0.5000000000
H             0.0000000000        0.5000000000        0.0000000000
H             0.5000000000        0.0000000000        0.0000000000
H             0.5000000000        0.5000000000        0.5000000000
End final coordinates



     Writing config-only to output data dir ./LiH.save/

     Final scf calculation at the relaxed structure.
     The G-vectors are recalculated for the final unit cell
     Results may differ from those at the preceding step.
 
     Parallelization info
     --------------------
     sticks:   dense  smooth     PW     G-vecs:    dense   smooth      PW
     Min          64      64     25                 1479     1479     375
     Max          66      66     27                 1480     1480     376
     Sum         917     917    365                20719    20719    5257
 
     Using Slab Decomposition
 


     bravais-lattice index     =            0
     lattice parameter (alat)  =       7.5915  a.u.
     unit-cell volume          =     435.1967 (a.u.)^3
     number of atoms/cell      =            8
     number of atomic types    =            2
     number of electrons       =        16.00
     number of Kohn-Sham states=           12
     kinetic-energy cutoff     =      70.0000  Ry
     charge density cutoff     =     200.0000  Ry
     scf convergence threshold =      1.0E-10
     mixing beta               =       0.7000
     number of iterations used =            8  plain     mixing
     press convergence thresh. =      5.0E-01
     Exchange-correlation= PBE
                           (   1   4   3   4   0   0   0)

     celldm(1)=   7.591483  celldm(2)=   0.000000  celldm(3)=   0.000000
     celldm(4)=   0.000000  celldm(5)=   0.000000  celldm(6)=   0.000000

     crystal axes: (cart. coord. in units of alat)
               a(1) = (   0.998241   0.000000   0.000000 )  
               a(2) = (   0.000000   0.998241   0.000000 )  
               a(3) = (   0.000000   0.000000   0.998241 )  

     reciprocal axes: (cart. coord. in units 2 pi/alat)
               b(1) = (  1.001762  0.000000  0.000000 )  
               b(2) = (  0.000000  1.001762  0.000000 )  
               b(3) = (  0.000000  0.000000  1.001762 )  


     PseudoPot. # 1 for Li read from file:
     /scratch/antwerpen/209/vsc20922/pseudos/li_pbe_v1.4.uspp.F.UPF
     MD5 check sum: e912e257baa3777c20ea3d68f190483c
     Pseudo is Ultrasoft, Zval =  3.0
     Generated by new atomic code, or converted to UPF format
     Using radial grid of  751 points,  5 beta functions with: 
                l(1) =   0
                l(2) =   0
                l(3) =   0
                l(4) =   1
                l(5) =   1
     Q(r) pseudized with 10 coefficients,  rinner =    1.150   1.150   1.150


     PseudoPot. # 2 for H  read from file:
     /scratch/antwerpen/209/vsc20922/pseudos/H.pbe-rrkjus_psl.1.0.0.UPF
     MD5 check sum: f52b6d4d1c606e5624b1dc7b2218f220
     Pseudo is Ultrasoft, Zval =  1.0
     Generated using "atomic" code by A. Dal Corso  v.5.1
     Using radial grid of  929 points,  2 beta functions with: 
                l(1) =   0
                l(2) =   0
     Q(r) pseudized with 0 coefficients 


     atomic species   valence    mass     pseudopotential
        Li             3.00     6.96750     Li( 1.00)
        H              1.00     1.00750     H ( 1.00)

     48 Sym. Ops., with inversion, found



   Cartesian axes

     site n.     atom                  positions (alat units)
         1           Li  tau(   1) = (   0.0000000   0.0000000   0.0000000  )
         2           Li  tau(   2) = (   0.0000000   0.4991203   0.4991203  )
         3           Li  tau(   3) = (   0.4991203   0.0000000   0.4991203  )
         4           Li  tau(   4) = (   0.4991203   0.4991203   0.0000000  )
         5           H   tau(   5) = (   0.0000000   0.0000000   0.4991203  )
         6           H   tau(   6) = (   0.0000000   0.4991203   0.0000000  )
         7           H   tau(   7) = (   0.4991203   0.0000000   0.0000000  )
         8           H   tau(   8) = (   0.4991203   0.4991203   0.4991203  )

     number of k points=    10  Marzari-Vanderbilt smearing, width (Ry)=  0.0050
                       cart. coord. in units 2pi/alat
        k(    1) = (   0.0000000   0.0000000   0.0000000), wk =   0.0160000
        k(    2) = (   0.0000000   0.0000000   0.2003525), wk =   0.0960000
        k(    3) = (   0.0000000   0.0000000   0.4007050), wk =   0.0960000
        k(    4) = (   0.0000000   0.2003525   0.2003525), wk =   0.1920000
        k(    5) = (   0.0000000   0.2003525   0.4007050), wk =   0.3840000
        k(    6) = (   0.0000000   0.4007050   0.4007050), wk =   0.1920000
        k(    7) = (   0.2003525   0.2003525   0.2003525), wk =   0.1280000
        k(    8) = (   0.2003525   0.2003525   0.4007050), wk =   0.3840000
        k(    9) = (   0.2003525   0.4007050   0.4007050), wk =   0.3840000
        k(   10) = (   0.4007050   0.4007050   0.4007050), wk =   0.1280000

     Dense  grid:    20719 G-vectors     FFT dimensions: (  36,  36,  36)

     Estimated max dynamical RAM per process >       4.16 MB

     Estimated total dynamical RAM >     111.32 MB

     Initial potential from superposition of free atoms

     starting charge      14.1970, renormalised to      16.0000
     Starting wfcs are   24 randomized atomic wfcs

     total cpu time spent up to now is        2.8 secs

     Self-consistent Calculation

     iteration #  1     ecut=    70.00 Ry     beta= 0.70
     Davidson diagonalization with overlap
     ethr =  1.00E-06,  avg # of iterations = 12.3

     total cpu time spent up to now is        2.9 secs

     total energy              =     -62.74023818 Ry
     estimated scf accuracy    <       0.61323028 Ry

     iteration #  2     ecut=    70.00 Ry     beta= 0.70
     Davidson diagonalization with overlap
     ethr =  3.83E-03,  avg # of iterations =  1.6

     total cpu time spent up to now is        3.0 secs

     total energy              =     -62.78199295 Ry
     estimated scf accuracy    <       0.01535285 Ry

     iteration #  3     ecut=    70.00 Ry     beta= 0.70
     Davidson diagonalization with overlap
     ethr =  9.60E-05,  avg # of iterations =  3.7

     total cpu time spent up to now is        3.0 secs

     total energy              =     -62.79901780 Ry
     estimated scf accuracy    <       0.00286078 Ry

     iteration #  4     ecut=    70.00 Ry     beta= 0.70
     Davidson diagonalization with overlap
     ethr =  1.79E-05,  avg # of iterations =  2.2

     total cpu time spent up to now is        3.1 secs

     total energy              =     -62.79901677 Ry
     estimated scf accuracy    <       0.00120227 Ry

     iteration #  5     ecut=    70.00 Ry     beta= 0.70
     Davidson diagonalization with overlap
     ethr =  7.51E-06,  avg # of iterations =  1.7

     total cpu time spent up to now is        3.1 secs

     total energy              =     -62.79908738 Ry
     estimated scf accuracy    <       0.00002615 Ry

     iteration #  6     ecut=    70.00 Ry     beta= 0.70
     Davidson diagonalization with overlap
     ethr =  1.63E-07,  avg # of iterations =  4.0

     total cpu time spent up to now is        3.2 secs

     total energy              =     -62.79910862 Ry
     estimated scf accuracy    <       0.00001082 Ry

     iteration #  7     ecut=    70.00 Ry     beta= 0.70
     Davidson diagonalization with overlap
     ethr =  6.76E-08,  avg # of iterations =  1.3

     total cpu time spent up to now is        3.2 secs

     total energy              =     -62.79910836 Ry
     estimated scf accuracy    <       0.00000196 Ry

     iteration #  8     ecut=    70.00 Ry     beta= 0.70
     Davidson diagonalization with overlap
     ethr =  1.22E-08,  avg # of iterations =  2.4

     total cpu time spent up to now is        3.2 secs

     total energy              =     -62.79910875 Ry
     estimated scf accuracy    <       0.00000012 Ry

     iteration #  9     ecut=    70.00 Ry     beta= 0.70
     Davidson diagonalization with overlap
     ethr =  7.41E-10,  avg # of iterations =  3.1

     total cpu time spent up to now is        3.3 secs

     total energy              =     -62.79910878 Ry
     estimated scf accuracy    <          3.4E-09 Ry

     iteration # 10     ecut=    70.00 Ry     beta= 0.70
     Davidson diagonalization with overlap
     ethr =  2.14E-11,  avg # of iterations =  4.1

     total cpu time spent up to now is        3.3 secs

     total energy              =     -62.79910878 Ry
     estimated scf accuracy    <          5.4E-09 Ry

     iteration # 11     ecut=    70.00 Ry     beta= 0.70
     Davidson diagonalization with overlap
     ethr =  2.14E-11,  avg # of iterations =  2.0

     total cpu time spent up to now is        3.4 secs

     total energy              =     -62.79910878 Ry
     estimated scf accuracy    <          1.2E-10 Ry

     iteration # 12     ecut=    70.00 Ry     beta= 0.70
     Davidson diagonalization with overlap
     ethr =  7.66E-13,  avg # of iterations =  3.6

     total cpu time spent up to now is        3.4 secs

     total energy              =     -62.79910878 Ry
     estimated scf accuracy    <          2.3E-10 Ry

     iteration # 13     ecut=    70.00 Ry     beta= 0.70
     Davidson diagonalization with overlap
     ethr =  7.66E-13,  avg # of iterations =  1.0

     total cpu time spent up to now is        3.5 secs

     End of self-consistent calculation

          k = 0.0000 0.0000 0.0000 (  4337 PWs)   bands (ev):

   -43.6294 -43.5693 -43.5693 -43.5693  -4.8055   0.6276   0.6276   0.6276
     3.6112   3.6112   3.6112  11.4362

          k = 0.0000 0.0000 0.2004 (  4296 PWs)   bands (ev):

   -43.6236 -43.5750 -43.5692 -43.5692  -4.5673  -0.8202   0.5464   0.5464
     3.9785   3.9785   5.6864   9.3463

          k = 0.0000 0.0000 0.4007 (  4284 PWs)   bands (ev):

   -43.6084 -43.5898 -43.5690 -43.5690  -3.8363  -2.5793   0.4205   0.4205
     5.0770   5.0770   6.8913   6.8913

          k = 0.0000 0.2004 0.2004 (  4296 PWs)   bands (ev):

   -43.6183 -43.5743 -43.5743 -43.5696  -4.3353  -0.7356  -0.7356   0.3433
     4.3456   5.8153   5.8153   8.6792

          k = 0.0000 0.2004 0.4007 (  4300 PWs)   bands (ev):

   -43.6045 -43.5877 -43.5727 -43.5709  -3.6243  -2.4076  -0.4848  -0.0880
     5.4438   6.3407   7.2573   7.3832

          k = 0.0000 0.4007 0.4007 (  4300 PWs)   bands (ev):

   -43.5945 -43.5823 -43.5823 -43.5759  -2.9777  -1.8909  -1.8909  -1.0564
     6.5407   8.0737   8.5004   8.5005

          k = 0.2004 0.2004 0.2004 (  4287 PWs)   bands (ev):

   -43.6135 -43.5742 -43.5742 -43.5742  -4.1119  -0.7293  -0.7293  -0.7293
     5.7530   5.7530   5.7530   9.2951

          k = 0.2004 0.2004 0.4007 (  4305 PWs)   bands (ev):

   -43.6012 -43.5861 -43.5740 -43.5740  -3.4290  -2.2713  -0.7215  -0.7215
     5.7496   5.7496   7.9016   8.5117

          k = 0.2004 0.4007 0.4007 (  4303 PWs)   bands (ev):

   -43.5926 -43.5822 -43.5822 -43.5775  -2.8388  -1.8744  -1.8744  -1.2877
     5.8024   6.6206   6.6206   8.0099

          k = 0.4007 0.4007 0.4007 (  4323 PWs)   bands (ev):

   -43.5877 -43.5820 -43.5820 -43.5820  -2.4362  -1.8471  -1.8471  -1.8471
     5.6796   5.6796   5.6796   6.4706

     the Fermi energy is     1.5365 ev

!    total energy              =     -62.79910878 Ry
     estimated scf accuracy    <          4.5E-11 Ry
     smearing contrib. (-TS)   =       0.00000000 Ry
     internal energy E=F+TS    =     -62.79910878 Ry

     The total energy is F=E-TS. E is the sum of the following terms:
     one-electron contribution =     -31.80058891 Ry
     hartree contribution      =      13.28688217 Ry
     xc contribution           =     -16.63370474 Ry
     ewald contribution        =     -27.65169731 Ry

     convergence has been achieved in  13 iterations

     Forces acting on atoms (cartesian axes, Ry/au):

     atom    1 type  1   force =     0.00000000    0.00000000    0.00000000
     atom    2 type  1   force =     0.00000000    0.00000000    0.00000000
     atom    3 type  1   force =     0.00000000    0.00000000    0.00000000
     atom    4 type  1   force =     0.00000000    0.00000000    0.00000000
     atom    5 type  2   force =     0.00000000    0.00000000    0.00000000
     atom    6 type  2   force =     0.00000000    0.00000000    0.00000000
     atom    7 type  2   force =     0.00000000    0.00000000    0.00000000
     atom    8 type  2   force =     0.00000000    0.00000000    0.00000000

     Total force =     0.000000     Total SCF correction =     0.000000


     Computing stress (Cartesian axis) and pressure

          total   stress  (Ry/bohr**3)                   (kbar)     P=       -0.31
  -0.00000213   0.00000000   0.00000000           -0.31        0.00        0.00
   0.00000000  -0.00000213   0.00000000            0.00       -0.31        0.00
   0.00000000   0.00000000  -0.00000213            0.00        0.00       -0.31


     Writing all to output data dir ./LiH.save/
 
     init_run     :      0.27s CPU      0.33s WALL (       2 calls)
     electrons    :      1.55s CPU      1.98s WALL (       5 calls)
     update_pot   :      0.30s CPU      0.31s WALL (       3 calls)
     forces       :      0.21s CPU      0.22s WALL (       5 calls)
     stress       :      0.35s CPU      0.36s WALL (       5 calls)

     Called by init_run:
     wfcinit      :      0.04s CPU      0.05s WALL (       2 calls)
     potinit      :      0.07s CPU      0.07s WALL (       2 calls)
     hinit0       :      0.14s CPU      0.15s WALL (       2 calls)

     Called by electrons:
     c_bands      :      1.20s CPU      1.34s WALL (      36 calls)
     sum_band     :      0.22s CPU      0.23s WALL (      36 calls)
     v_of_rho     :      0.07s CPU      0.08s WALL (      38 calls)
     newd         :      0.03s CPU      0.03s WALL (      38 calls)
     mix_rho      :      0.01s CPU      0.01s WALL (      36 calls)

     Called by c_bands:
     init_us_2    :      0.04s CPU      0.04s WALL (     420 calls)
     init_us_2:cp :      0.03s CPU      0.04s WALL (     420 calls)
     cegterg      :      1.05s CPU      1.10s WALL (     180 calls)

     Called by *egterg:
     cdiaghg      :      0.10s CPU      0.11s WALL (     627 calls)
     h_psi        :      0.82s CPU      0.86s WALL (     667 calls)
     s_psi        :      0.03s CPU      0.04s WALL (     667 calls)
     g_psi        :      0.01s CPU      0.01s WALL (     477 calls)

     Called by h_psi:
     h_psi:calbec :      0.05s CPU      0.05s WALL (     667 calls)
     vloc_psi     :      0.73s CPU      0.76s WALL (     667 calls)
     add_vuspsi   :      0.03s CPU      0.04s WALL (     667 calls)

     General routines
     calbec       :      0.07s CPU      0.08s WALL (     972 calls)
     fft          :      0.04s CPU      0.04s WALL (     464 calls)
     ffts         :      0.00s CPU      0.00s WALL (      36 calls)
     fftw         :      0.76s CPU      0.80s WALL (   14622 calls)
 
     Parallel routines
 
     PWSCF        :      2.83s CPU      3.79s WALL

 
   This run was terminated on:  22:27:24   6Dec2023            

=------------------------------------------------------------------------------=
   JOB DONE.
=------------------------------------------------------------------------------=
