
     Program PWSCF v.7.1 starts on  3Dec2023 at 15:36:44 

     This program is part of the open-source Quantum ESPRESSO suite
     for quantum simulation of materials; please cite
         "P. Giannozzi et al., J. Phys.:Condens. Matter 21 395502 (2009);
         "P. Giannozzi et al., J. Phys.:Condens. Matter 29 465901 (2017);
         "P. Giannozzi et al., J. Chem. Phys. 152 154105 (2020);
          URL http://www.quantum-espresso.org", 
     in publications or presentations arising from this work. More details at
     http://www.quantum-espresso.org/quote

     Parallel version (MPI & OpenMP), running on      28 processor cores
     Number of MPI processes:                28
     Threads/MPI process:                     1

     MPI processes distributed on     1 nodes
     122420 MiB available memory on the printing compute node when the environment starts
 
     Reading input from Na3AlH6_opt.in

     Current dimensions of program PWSCF are:
     Max number of different atomic species (ntypx) = 10
     Max number of k-points (npk) =  40000
     Max angular momentum in pseudopotentials (lmaxx) =  4
     file Al.pbe-n-kjpaw_psl.1.0.0.UPF: wavefunction(s)  3S 3P renormalized

     IMPORTANT: XC functional enforced from input :
     Exchange-correlation= PBE
                           (   1   4   3   4   0   0   0)
     Any further DFT definition will be discarded
     Please, verify this is what you really want

     Message from routine setup:
     using ibrav=0 with symmetry is DISCOURAGED, use correct ibrav instead
 
     R & G space division:  proc/nbgrp/npool/nimage =      28
     Subspace diagonalization in iterative solution of the eigenvalue problem:
     a serial algorithm will be used

 
     Parallelization info
     --------------------
     sticks:   dense  smooth     PW     G-vecs:    dense   smooth      PW
     Min          82      82     23                 4224     4224     633
     Max          83      83     24                 4229     4229     637
     Sum        2319    2319    657               118317   118317   17765
 
     Using Slab Decomposition
 


     bravais-lattice index     =            0
     lattice parameter (alat)  =      10.0031  a.u.
     unit-cell volume          =    1494.3871 (a.u.)^3
     number of atoms/cell      =           20
     number of atomic types    =            3
     number of electrons       =        72.00
     number of Kohn-Sham states=           43
     kinetic-energy cutoff     =      70.0000  Ry
     charge density cutoff     =     280.0000  Ry
     scf convergence threshold =      1.0E-08
     mixing beta               =       0.7000
     number of iterations used =            8  plain     mixing
     energy convergence thresh.=      1.0E-04
     force convergence thresh. =      1.0E-03
     press convergence thresh. =      5.0E-01
     Exchange-correlation= PBE
                           (   1   4   3   4   0   0   0)
     nstep                     =           50


     celldm(1)=  10.003076  celldm(2)=   0.000000  celldm(3)=   0.000000
     celldm(4)=   0.000000  celldm(5)=   0.000000  celldm(6)=   0.000000

     crystal axes: (cart. coord. in units of alat)
               a(1) = (   1.000000   0.000000   0.000000 )  
               a(2) = (   0.000000   1.037180   0.000000 )  
               a(3) = (  -0.999562   0.000000   1.439488 )  

     reciprocal axes: (cart. coord. in units 2 pi/alat)
               b(1) = (  1.000000  0.000000  0.694387 )  
               b(2) = (  0.000000  0.964153  0.000000 )  
               b(3) = (  0.000000  0.000000  0.694691 )  


     PseudoPot. # 1 for H  read from file:
     /scratch/antwerpen/209/vsc20922/pseudos/H.pbe-rrkjus_psl.1.0.0.UPF
     MD5 check sum: f52b6d4d1c606e5624b1dc7b2218f220
     Pseudo is Ultrasoft, Zval =  1.0
     Generated using "atomic" code by A. Dal Corso  v.5.1
     Using radial grid of  929 points,  2 beta functions with: 
                l(1) =   0
                l(2) =   0
     Q(r) pseudized with 0 coefficients 


     PseudoPot. # 2 for Al read from file:
     /scratch/antwerpen/209/vsc20922/pseudos/Al.pbe-n-kjpaw_psl.1.0.0.UPF
     MD5 check sum: cfc449ca30b5f3223ec38ddd88ac046d
     Pseudo is Projector augmented-wave + core cor, Zval =  3.0
     Generated using "atomic" code by A. Dal Corso  v.5.1
     Shape of augmentation charge: PSQ
     Using radial grid of 1135 points,  6 beta functions with: 
                l(1) =   0
                l(2) =   0
                l(3) =   1
                l(4) =   1
                l(5) =   2
                l(6) =   2
     Q(r) pseudized with 0 coefficients 


     PseudoPot. # 3 for Na read from file:
     /scratch/antwerpen/209/vsc20922/pseudos/na_pbe_v1.5.uspp.F.UPF
     MD5 check sum: 44600605ef58000f06b90626533354dc
     Pseudo is Ultrasoft, Zval =  9.0
     Generated by new atomic code, or converted to UPF format
     Using radial grid of  819 points,  5 beta functions with: 
                l(1) =   0
                l(2) =   0
                l(3) =   1
                l(4) =   1
                l(5) =   2
     Q(r) pseudized with  8 coefficients,  rinner =    1.250   1.250   1.250
                                                       1.250   1.250

     atomic species   valence    mass     pseudopotential
        H              1.00     1.00750     H ( 1.00)
        Al             3.00    26.98100     Al( 1.00)
        Na             9.00    22.98900     Na( 1.00)

      4 Sym. Ops., with inversion, found ( 2 have fractional translation)



   Cartesian axes

     site n.     atom                  positions (alat units)
         1           Al  tau(   1) = (  -0.4997812   0.5185901   0.7197441  )
         2           Al  tau(   2) = (   0.0000000   0.0000000   0.0000000  )
         3           Na  tau(   3) = (   0.5000000   0.5185901   0.0000000  )
         4           Na  tau(   4) = (   0.0002188   0.0000000   0.7197441  )
         5           Na  tau(   5) = (   0.0114940   0.4695553   1.0745406  )
         6           Na  tau(   6) = (  -0.5108375   0.9881455   1.0846919  )
         7           Na  tau(   7) = (  -0.0110564   0.5676249   0.3649477  )
         8           Na  tau(   8) = (   0.5112752   0.0490348   0.3547964  )
         9           H   tau(   9) = (   0.8387304   0.2771733   0.0906651  )
        10           H   tau(  10) = (  -0.3385116   0.7957635   0.6290790  )
        11           H   tau(  11) = (  -0.8382928   0.7600069   1.3488231  )
        12           H   tau(  12) = (   0.3389492   0.2414168   0.8104093  )
        13           H   tau(  13) = (  -0.2278400   0.3425602   0.6572049  )
        14           H   tau(  14) = (   0.7280588   0.8611504   0.0625392  )
        15           H   tau(  15) = (   0.2282776   0.6946200   0.7822834  )
        16           H   tau(  16) = (  -0.7276212   0.1760299   1.3769491  )
        17           H   tau(  17) = (   0.4006149   0.4691118   0.4077466  )
        18           H   tau(  18) = (   0.0996039   0.9877019   0.3119975  )
        19           H   tau(  19) = (  -0.4001772   0.5680685   1.0317417  )
        20           H   tau(  20) = (  -0.0991663   0.0494784   1.1274908  )

     number of k points=   100  Marzari-Vanderbilt smearing, width (Ry)=  0.0050

     Number of k-points >= 100: set verbosity='high' to print them.

     Dense  grid:   118317 G-vectors     FFT dimensions: (  54,  60,  96)

     Estimated max dynamical RAM per process >      61.26 MB

     Estimated total dynamical RAM >       1.67 GB

     Initial potential from superposition of free atoms

     starting charge      71.9576, renormalised to      72.0000
     Starting wfcs are   50 randomized atomic wfcs
     Checking if some PAW data can be deallocated... 

     total cpu time spent up to now is        3.7 secs

     Self-consistent Calculation

     iteration #  1     ecut=    70.00 Ry     beta= 0.70
     Davidson diagonalization with overlap
     ethr =  1.00E-02,  avg # of iterations =  5.8

     total cpu time spent up to now is       13.0 secs

     total energy              =    -665.23162087 Ry
     estimated scf accuracy    <       0.94172144 Ry

     iteration #  2     ecut=    70.00 Ry     beta= 0.70
     Davidson diagonalization with overlap
     ethr =  1.31E-03,  avg # of iterations =  2.1

     total cpu time spent up to now is       20.4 secs

     total energy              =    -665.33010564 Ry
     estimated scf accuracy    <       0.02140454 Ry

     iteration #  3     ecut=    70.00 Ry     beta= 0.70
     Davidson diagonalization with overlap
     c_bands:  1 eigenvalues not converged
     ethr =  2.97E-05,  avg # of iterations =  9.6

     total cpu time spent up to now is       32.7 secs

     total energy              =    -665.33659535 Ry
     estimated scf accuracy    <       0.00184369 Ry

     iteration #  4     ecut=    70.00 Ry     beta= 0.70
     Davidson diagonalization with overlap
     ethr =  2.56E-06,  avg # of iterations =  3.8

     total cpu time spent up to now is       40.8 secs

     total energy              =    -665.33703453 Ry
     estimated scf accuracy    <       0.00009394 Ry

     iteration #  5     ecut=    70.00 Ry     beta= 0.70
     Davidson diagonalization with overlap
     ethr =  1.30E-07,  avg # of iterations =  3.7

     total cpu time spent up to now is       49.1 secs

     total energy              =    -665.33705735 Ry
     estimated scf accuracy    <       0.00000941 Ry

     iteration #  6     ecut=    70.00 Ry     beta= 0.70
     Davidson diagonalization with overlap
     ethr =  1.31E-08,  avg # of iterations =  2.0

     total cpu time spent up to now is       56.2 secs

     total energy              =    -665.33705846 Ry
     estimated scf accuracy    <       0.00000018 Ry

     iteration #  7     ecut=    70.00 Ry     beta= 0.70
     Davidson diagonalization with overlap
     ethr =  2.43E-10,  avg # of iterations =  4.0

     total cpu time spent up to now is       65.6 secs

     total energy              =    -665.33705853 Ry
     estimated scf accuracy    <       0.00000007 Ry

     iteration #  8     ecut=    70.00 Ry     beta= 0.70
     Davidson diagonalization with overlap
     ethr =  1.03E-10,  avg # of iterations =  3.0

     total cpu time spent up to now is       73.0 secs

     total energy              =    -665.33705855 Ry
     estimated scf accuracy    <       0.00000002 Ry

     iteration #  9     ecut=    70.00 Ry     beta= 0.70
     Davidson diagonalization with overlap
     ethr =  2.22E-11,  avg # of iterations =  3.1

     total cpu time spent up to now is       80.4 secs

     End of self-consistent calculation

     Number of k-points >= 100: set verbosity='high' to print the bands.

     the Fermi energy is     3.5713 ev

!    total energy              =    -665.33705855 Ry
     estimated scf accuracy    <          3.2E-09 Ry
     smearing contrib. (-TS)   =       0.00000000 Ry
     internal energy E=F+TS    =    -665.33705855 Ry

     The total energy is F=E-TS. E is the sum of the following terms:
     one-electron contribution =    -481.97973958 Ry
     hartree contribution      =     254.78235732 Ry
     xc contribution           =    -100.22952871 Ry
     ewald contribution        =    -268.57362671 Ry
     one-center paw contrib.   =     -69.33652087 Ry

     convergence has been achieved in   9 iterations

     Forces acting on atoms (cartesian axes, Ry/au):

     atom    1 type  2   force =     0.00000000    0.00000000    0.00000000
     atom    2 type  2   force =     0.00000000    0.00000000    0.00000000
     atom    3 type  3   force =     0.00000000    0.00000000    0.00000000
     atom    4 type  3   force =    -0.00000000    0.00000000   -0.00000000
     atom    5 type  3   force =    -0.00045324    0.00044599    0.00032770
     atom    6 type  3   force =     0.00045324    0.00044599   -0.00032770
     atom    7 type  3   force =     0.00045324   -0.00044599   -0.00032770
     atom    8 type  3   force =    -0.00045324   -0.00044599    0.00032770
     atom    9 type  1   force =    -0.00090282    0.00190168    0.00069050
     atom   10 type  1   force =     0.00090282    0.00190168   -0.00069050
     atom   11 type  1   force =     0.00090282   -0.00190168   -0.00069050
     atom   12 type  1   force =    -0.00090282   -0.00190168    0.00069050
     atom   13 type  1   force =     0.00194621   -0.00124958   -0.00039838
     atom   14 type  1   force =    -0.00194621   -0.00124958    0.00039838
     atom   15 type  1   force =    -0.00194621    0.00124958    0.00039838
     atom   16 type  1   force =     0.00194621    0.00124958   -0.00039838
     atom   17 type  1   force =    -0.00088551   -0.00008216   -0.00228239
     atom   18 type  1   force =     0.00088551   -0.00008216    0.00228239
     atom   19 type  1   force =     0.00088551    0.00008216    0.00228239
     atom   20 type  1   force =    -0.00088551    0.00008216   -0.00228239

     Total force =     0.008229     Total SCF correction =     0.000022


     Computing stress (Cartesian axis) and pressure

          total   stress  (Ry/bohr**3)                   (kbar)     P=       14.92
   0.00010132   0.00000000   0.00000020           14.90        0.00        0.03
   0.00000000   0.00010040   0.00000000            0.00       14.77        0.00
   0.00000020   0.00000000   0.00010255            0.03        0.00       15.09


     BFGS Geometry Optimization
     Energy error            =      0.0E+00 Ry
     Gradient error          =      2.3E-03 Ry/Bohr
     Cell gradient error     =      1.5E+01 kbar

     number of scf cycles    =   1
     number of bfgs steps    =   0

     enthalpy           new  =    -665.3370585516 Ry

     new trust radius        =       0.0198216093 bohr
     new conv_thr            =       0.0000000100 Ry

     new unit-cell volume =   1505.78326 a.u.^3 (   223.13406 Ang^3 )
     density =      1.51804 g/cm^3

CELL_PARAMETERS (alat= 10.00307627)
   1.002533026   0.000000000   0.000004887
   0.000000000   1.039783452   0.000000000
  -1.002087254   0.000000000   1.443173892

ATOMIC_POSITIONS (crystal)
Al           -0.0000000000        0.5000000000        0.5000000000
Al            0.0000000000        0.0000000000        0.0000000000
Na            0.5000000000        0.5000000000       -0.0000000000
Na            0.5000000000        0.0000000000        0.5000000000
Na            0.7576187374        0.4527659675        0.7464967478
Na            0.2423812626        0.9527659675        0.7535032522
Na            0.2423812626        0.5472340325        0.2535032522
Na            0.7576187374        0.0472340325        0.2464967478
H             0.9016448378        0.2674206843        0.0630322435
H             0.0983551622        0.7674206843        0.4369677565
H             0.0983551622        0.7325793157        0.9369677565
H             0.9016448378        0.2325793157        0.5630322435
H             0.2286816468        0.3301598981        0.4565268837
H             0.7713183532        0.8301598981        0.0434731163
H             0.7713183532        0.6698401019        0.5434731163
H             0.2286816468        0.1698401019        0.9565268837
H             0.6835019783        0.4522873907        0.2830995231
H             0.3164980217        0.9522873907        0.2169004769
H             0.3164980217        0.5477126093        0.7169004769
H             0.6835019783        0.0477126093        0.7830995231



     Writing config-only to output data dir ./Na3AlH6.save/
     NEW-OLD atomic charge density approx. for the potential
     extrapolated charge   72.54459, renormalised to   72.00000

     total cpu time spent up to now is       85.8 secs

     Self-consistent Calculation

     iteration #  1     ecut=    70.00 Ry     beta= 0.70
     Davidson diagonalization with overlap
     ethr =  1.00E-06,  avg # of iterations =  4.0

     total cpu time spent up to now is       96.5 secs

     total energy              =    -665.31822333 Ry
     estimated scf accuracy    <       0.01153491 Ry

     iteration #  2     ecut=    70.00 Ry     beta= 0.70
     Davidson diagonalization with overlap
     ethr =  1.60E-05,  avg # of iterations =  3.0

     total cpu time spent up to now is      106.5 secs

     total energy              =    -665.33848793 Ry
     estimated scf accuracy    <       0.02029177 Ry

     iteration #  3     ecut=    70.00 Ry     beta= 0.70
     Davidson diagonalization with overlap
     ethr =  1.60E-05,  avg # of iterations =  2.0

     total cpu time spent up to now is      113.9 secs

     total energy              =    -665.33818030 Ry
     estimated scf accuracy    <       0.00408211 Ry

     iteration #  4     ecut=    70.00 Ry     beta= 0.70
     Davidson diagonalization with overlap
     ethr =  5.67E-06,  avg # of iterations =  2.0

     total cpu time spent up to now is      120.7 secs

     total energy              =    -665.33791110 Ry
     estimated scf accuracy    <       0.00089510 Ry

     iteration #  5     ecut=    70.00 Ry     beta= 0.70
     Davidson diagonalization with overlap
     ethr =  1.24E-06,  avg # of iterations =  2.0

     total cpu time spent up to now is      128.8 secs

     total energy              =    -665.33812336 Ry
     estimated scf accuracy    <       0.00000569 Ry

     iteration #  6     ecut=    70.00 Ry     beta= 0.70
     Davidson diagonalization with overlap
     ethr =  7.90E-09,  avg # of iterations =  5.0

     total cpu time spent up to now is      140.4 secs

     total energy              =    -665.33812128 Ry
     estimated scf accuracy    <       0.00003657 Ry

     iteration #  7     ecut=    70.00 Ry     beta= 0.70
     Davidson diagonalization with overlap
     ethr =  7.90E-09,  avg # of iterations =  2.0

     total cpu time spent up to now is      148.8 secs

     total energy              =    -665.33812703 Ry
     estimated scf accuracy    <       0.00000079 Ry

     iteration #  8     ecut=    70.00 Ry     beta= 0.70
     Davidson diagonalization with overlap
     ethr =  1.10E-09,  avg # of iterations =  2.0

     total cpu time spent up to now is      157.0 secs

     total energy              =    -665.33812731 Ry
     estimated scf accuracy    <       0.00000011 Ry

     iteration #  9     ecut=    70.00 Ry     beta= 0.70
     Davidson diagonalization with overlap
     ethr =  1.52E-10,  avg # of iterations =  2.5

     total cpu time spent up to now is      165.6 secs

     total energy              =    -665.33812725 Ry
     estimated scf accuracy    <       0.00000030 Ry

     iteration # 10     ecut=    70.00 Ry     beta= 0.70
     Davidson diagonalization with overlap
     ethr =  1.52E-10,  avg # of iterations =  2.0

     total cpu time spent up to now is      172.6 secs

     total energy              =    -665.33812721 Ry
     estimated scf accuracy    <       0.00000008 Ry

     iteration # 11     ecut=    70.00 Ry     beta= 0.70
     Davidson diagonalization with overlap
     ethr =  1.07E-10,  avg # of iterations =  2.0

     total cpu time spent up to now is      181.3 secs

     End of self-consistent calculation

     Number of k-points >= 100: set verbosity='high' to print the bands.

     the Fermi energy is     3.4978 ev

!    total energy              =    -665.33812723 Ry
     estimated scf accuracy    <          1.1E-10 Ry
     smearing contrib. (-TS)   =       0.00000000 Ry
     internal energy E=F+TS    =    -665.33812723 Ry

     The total energy is F=E-TS. E is the sum of the following terms:
     one-electron contribution =    -483.13670303 Ry
     hartree contribution      =     255.22176073 Ry
     xc contribution           =    -100.20008744 Ry
     ewald contribution        =    -267.88879890 Ry
     one-center paw contrib.   =     -69.33429858 Ry

     convergence has been achieved in  11 iterations

     Forces acting on atoms (cartesian axes, Ry/au):

     atom    1 type  2   force =     0.00000000    0.00000000    0.00000000
     atom    2 type  2   force =     0.00000000    0.00000000    0.00000000
     atom    3 type  3   force =     0.00000000   -0.00000000   -0.00000000
     atom    4 type  3   force =    -0.00000000    0.00000000    0.00000000
     atom    5 type  3   force =    -0.00042868    0.00039715    0.00025444
     atom    6 type  3   force =     0.00042868    0.00039715   -0.00025444
     atom    7 type  3   force =     0.00042868   -0.00039715   -0.00025444
     atom    8 type  3   force =    -0.00042868   -0.00039715    0.00025444
     atom    9 type  1   force =    -0.00031743    0.00088054    0.00038949
     atom   10 type  1   force =     0.00031743    0.00088054   -0.00038949
     atom   11 type  1   force =     0.00031743   -0.00088054   -0.00038949
     atom   12 type  1   force =    -0.00031743   -0.00088054    0.00038949
     atom   13 type  1   force =     0.00086638   -0.00049555   -0.00020090
     atom   14 type  1   force =    -0.00086638   -0.00049555    0.00020090
     atom   15 type  1   force =    -0.00086638    0.00049555    0.00020090
     atom   16 type  1   force =     0.00086638    0.00049555   -0.00020090
     atom   17 type  1   force =    -0.00052112    0.00003425   -0.00105583
     atom   18 type  1   force =     0.00052112    0.00003425    0.00105583
     atom   19 type  1   force =     0.00052112   -0.00003425    0.00105583
     atom   20 type  1   force =    -0.00052112   -0.00003425   -0.00105583

     Total force =     0.003928     Total SCF correction =     0.000003


     Computing stress (Cartesian axis) and pressure

          total   stress  (Ry/bohr**3)                   (kbar)     P=       11.41
   0.00007725   0.00000000   0.00000044           11.36        0.00        0.07
   0.00000000   0.00007640   0.00000000            0.00       11.24        0.00
   0.00000044   0.00000000   0.00007897            0.07        0.00       11.62

     Energy error            =      1.1E-03 Ry
     Gradient error          =      1.1E-03 Ry/Bohr
     Cell gradient error     =      1.2E+01 kbar

     number of scf cycles    =   2
     number of bfgs steps    =   1

     enthalpy           old  =    -665.3370585516 Ry
     enthalpy           new  =    -665.3381272297 Ry

     CASE: enthalpy          _new < enthalpy          _old

     new trust radius        =       0.0218307806 bohr
     new conv_thr            =       0.0000000001 Ry

     new unit-cell volume =   1518.29745 a.u.^3 (   224.98847 Ang^3 )
     density =      1.50553 g/cm^3

CELL_PARAMETERS (alat= 10.00307627)
   1.005292513   0.000000000   0.000020448
   0.000000000   1.042614200   0.000000000
  -1.004823135   0.000000000   1.447217829

ATOMIC_POSITIONS (crystal)
Al            0.0000000000        0.5000000000        0.5000000000
Al            0.0000000000        0.0000000000        0.0000000000
Na            0.5000000000        0.5000000000        0.0000000000
Na            0.5000000000        0.0000000000        0.5000000000
Na            0.7575831302        0.4528203213        0.7465219225
Na            0.2424168698        0.9528203213        0.7534780775
Na            0.2424168698        0.5471796787        0.2534780775
Na            0.7575831302        0.0471796787        0.2465219225
H             0.9016371107        0.2675437110        0.0630711556
H             0.0983628893        0.7675437110        0.4369288444
H             0.0983628893        0.7324562890        0.9369288444
H             0.9016371107        0.2324562890        0.5630711556
H             0.2287872674        0.3300901668        0.4565067295
H             0.7712127326        0.8300901668        0.0434932705
H             0.7712127326        0.6699098332        0.5434932705
H             0.2287872674        0.1699098332        0.9565067295
H             0.6833208925        0.4522917452        0.2829932239
H             0.3166791075        0.9522917452        0.2170067761
H             0.3166791075        0.5477082548        0.7170067761
H             0.6833208925        0.0477082548        0.7829932239



     Writing config-only to output data dir ./Na3AlH6.save/
     NEW-OLD atomic charge density approx. for the potential
     extrapolated charge   72.59309, renormalised to   72.00000

     total cpu time spent up to now is      186.3 secs

     Self-consistent Calculation

     iteration #  1     ecut=    70.00 Ry     beta= 0.70
     Davidson diagonalization with overlap
     ethr =  1.00E-06,  avg # of iterations =  4.1

     total cpu time spent up to now is      197.9 secs

     total energy              =    -665.31519197 Ry
     estimated scf accuracy    <       0.01381794 Ry

     iteration #  2     ecut=    70.00 Ry     beta= 0.70
     Davidson diagonalization with overlap
     ethr =  1.92E-05,  avg # of iterations =  3.0

     total cpu time spent up to now is      208.0 secs

     total energy              =    -665.33937116 Ry
     estimated scf accuracy    <       0.02426866 Ry

     iteration #  3     ecut=    70.00 Ry     beta= 0.70
     Davidson diagonalization with overlap
     ethr =  1.92E-05,  avg # of iterations =  2.0

     total cpu time spent up to now is      215.4 secs

     total energy              =    -665.33910851 Ry
     estimated scf accuracy    <       0.00486784 Ry

     iteration #  4     ecut=    70.00 Ry     beta= 0.70
     Davidson diagonalization with overlap
     ethr =  6.76E-06,  avg # of iterations =  1.0

     total cpu time spent up to now is      221.5 secs

     total energy              =    -665.33882090 Ry
     estimated scf accuracy    <       0.00120777 Ry

     iteration #  5     ecut=    70.00 Ry     beta= 0.70
     Davidson diagonalization with overlap
     ethr =  1.68E-06,  avg # of iterations =  2.0

     total cpu time spent up to now is      229.0 secs

     total energy              =    -665.33888745 Ry
     estimated scf accuracy    <       0.00012526 Ry

     iteration #  6     ecut=    70.00 Ry     beta= 0.70
     Davidson diagonalization with overlap
     ethr =  1.74E-07,  avg # of iterations =  3.0

     total cpu time spent up to now is      237.9 secs

     total energy              =    -665.33895855 Ry
     estimated scf accuracy    <       0.00004497 Ry

     iteration #  7     ecut=    70.00 Ry     beta= 0.70
     Davidson diagonalization with overlap
     ethr =  6.25E-08,  avg # of iterations =  1.0

     total cpu time spent up to now is      243.9 secs

     total energy              =    -665.33894215 Ry
     estimated scf accuracy    <       0.00002280 Ry

     iteration #  8     ecut=    70.00 Ry     beta= 0.70
     Davidson diagonalization with overlap
     ethr =  3.17E-08,  avg # of iterations =  2.0

     total cpu time spent up to now is      252.2 secs

     total energy              =    -665.33894932 Ry
     estimated scf accuracy    <       0.00000183 Ry

     iteration #  9     ecut=    70.00 Ry     beta= 0.70
     Davidson diagonalization with overlap
     ethr =  2.54E-09,  avg # of iterations =  2.0

     total cpu time spent up to now is      259.9 secs

     total energy              =    -665.33894942 Ry
     estimated scf accuracy    <       0.00000018 Ry

     iteration # 10     ecut=    70.00 Ry     beta= 0.70
     Davidson diagonalization with overlap
     ethr =  2.56E-10,  avg # of iterations =  2.8

     total cpu time spent up to now is      268.6 secs

     total energy              =    -665.33894949 Ry
     estimated scf accuracy    <       0.00000026 Ry

     iteration # 11     ecut=    70.00 Ry     beta= 0.70
     Davidson diagonalization with overlap
     ethr =  2.56E-10,  avg # of iterations =  1.0

     total cpu time spent up to now is      274.7 secs

     total energy              =    -665.33894944 Ry
     estimated scf accuracy    <       0.00000009 Ry

     iteration # 12     ecut=    70.00 Ry     beta= 0.70
     Davidson diagonalization with overlap
     ethr =  1.21E-10,  avg # of iterations =  2.0

     total cpu time spent up to now is      282.7 secs

     total energy              =    -665.33894946 Ry
     estimated scf accuracy    <          2.2E-09 Ry

     iteration # 13     ecut=    70.00 Ry     beta= 0.70
     Davidson diagonalization with overlap
     ethr =  3.04E-12,  avg # of iterations =  3.6

     total cpu time spent up to now is      291.9 secs

     total energy              =    -665.33894946 Ry
     estimated scf accuracy    <          2.3E-09 Ry

     iteration # 14     ecut=    70.00 Ry     beta= 0.70
     Davidson diagonalization with overlap
     ethr =  3.04E-12,  avg # of iterations =  1.0

     total cpu time spent up to now is      298.0 secs

     total energy              =    -665.33894946 Ry
     estimated scf accuracy    <          8.5E-10 Ry

     iteration # 15     ecut=    70.00 Ry     beta= 0.70
     Davidson diagonalization with overlap
     ethr =  1.18E-12,  avg # of iterations =  2.0

     total cpu time spent up to now is      306.1 secs

     End of self-consistent calculation

     Number of k-points >= 100: set verbosity='high' to print the bands.

     the Fermi energy is     3.4189 ev

!    total energy              =    -665.33894946 Ry
     estimated scf accuracy    <          4.8E-12 Ry
     smearing contrib. (-TS)   =       0.00000000 Ry
     internal energy E=F+TS    =    -665.33894946 Ry

     The total energy is F=E-TS. E is the sum of the following terms:
     one-electron contribution =    -484.38216342 Ry
     hartree contribution      =     255.69264457 Ry
     xc contribution           =    -100.16911662 Ry
     ewald contribution        =    -267.14821019 Ry
     one-center paw contrib.   =     -69.33210381 Ry

     convergence has been achieved in  15 iterations

     Forces acting on atoms (cartesian axes, Ry/au):

     atom    1 type  2   force =     0.00000000    0.00000000    0.00000000
     atom    2 type  2   force =    -0.00000000    0.00000000   -0.00000000
     atom    3 type  3   force =     0.00000000   -0.00000000    0.00000000
     atom    4 type  3   force =    -0.00000000   -0.00000000   -0.00000000
     atom    5 type  3   force =    -0.00039936    0.00034963    0.00017987
     atom    6 type  3   force =     0.00039936    0.00034963   -0.00017987
     atom    7 type  3   force =     0.00039936   -0.00034963   -0.00017987
     atom    8 type  3   force =    -0.00039936   -0.00034963    0.00017987
     atom    9 type  1   force =     0.00022025   -0.00006235    0.00011202
     atom   10 type  1   force =    -0.00022025   -0.00006235   -0.00011202
     atom   11 type  1   force =    -0.00022025    0.00006235   -0.00011202
     atom   12 type  1   force =     0.00022025    0.00006235    0.00011202
     atom   13 type  1   force =    -0.00012726    0.00019390   -0.00002059
     atom   14 type  1   force =     0.00012726    0.00019390    0.00002059
     atom   15 type  1   force =     0.00012726   -0.00019390    0.00002059
     atom   16 type  1   force =    -0.00012726   -0.00019390   -0.00002059
     atom   17 type  1   force =    -0.00017526    0.00013440    0.00008479
     atom   18 type  1   force =     0.00017526    0.00013440   -0.00008479
     atom   19 type  1   force =     0.00017526   -0.00013440   -0.00008479
     atom   20 type  1   force =    -0.00017526   -0.00013440    0.00008479

     Total force =     0.001399     Total SCF correction =     0.000001


     Computing stress (Cartesian axis) and pressure

          total   stress  (Ry/bohr**3)                   (kbar)     P=        7.71
   0.00005199   0.00000000   0.00000066            7.65        0.00        0.10
   0.00000000   0.00005113   0.00000000            0.00        7.52        0.00
   0.00000066   0.00000000   0.00005408            0.10        0.00        7.95

     Energy error            =      8.2E-04 Ry
     Gradient error          =      4.0E-04 Ry/Bohr
     Cell gradient error     =      8.0E+00 kbar

     number of scf cycles    =   3
     number of bfgs steps    =   2

     enthalpy           old  =    -665.3381272297 Ry
     enthalpy           new  =    -665.3389494597 Ry

     CASE: enthalpy          _new < enthalpy          _old

     new trust radius        =       0.0327897229 bohr
     new conv_thr            =            1.0E-10 Ry

     new unit-cell volume =   1537.03109 a.u.^3 (   227.76451 Ang^3 )
     density =      1.48718 g/cm^3

CELL_PARAMETERS (alat= 10.00307627)
   1.009384064   0.000000000   0.000062191
   0.000000000   1.046795962   0.000000000
  -1.008852807   0.000000000   1.453265138

ATOMIC_POSITIONS (crystal)
Al            0.0000000000        0.5000000000        0.5000000000
Al           -0.0000000000        0.0000000000       -0.0000000000
Na            0.5000000000        0.5000000000       -0.0000000000
Na            0.5000000000       -0.0000000000        0.5000000000
Na            0.7575085577        0.4529173604        0.7465604425
Na            0.2424914423        0.9529173604        0.7534395575
Na            0.2424914423        0.5470826396        0.2534395575
Na            0.7575085577        0.0470826396        0.2465604425
H             0.9016942695        0.2675945385        0.0631071027
H             0.0983057305        0.7675945385        0.4368928973
H             0.0983057305        0.7324054615        0.9368928973
H             0.9016942695        0.2324054615        0.5631071027
H             0.2288124640        0.3300926649        0.4564934353
H             0.7711875360        0.8300926649        0.0435065647
H             0.7711875360        0.6699073351        0.5435065647
H             0.2288124640        0.1699073351        0.9564934353
H             0.6832041767        0.4523205044        0.2829507843
H             0.3167958233        0.9523205044        0.2170492157
H             0.3167958233        0.5476794956        0.7170492157
H             0.6832041767        0.0476794956        0.7829507843



     Writing config-only to output data dir ./Na3AlH6.save/
     NEW-OLD atomic charge density approx. for the potential
     extrapolated charge   72.87703, renormalised to   72.00000

     total cpu time spent up to now is      311.2 secs

     Self-consistent Calculation

     iteration #  1     ecut=    70.00 Ry     beta= 0.70
     Davidson diagonalization with overlap
     ethr =  1.00E-06,  avg # of iterations =  5.2

     total cpu time spent up to now is      324.0 secs

     total energy              =    -665.28694034 Ry
     estimated scf accuracy    <       0.03070796 Ry

     iteration #  2     ecut=    70.00 Ry     beta= 0.70
     Davidson diagonalization with overlap
     ethr =  4.26E-05,  avg # of iterations =  3.0

     total cpu time spent up to now is      334.0 secs

     total energy              =    -665.34057647 Ry
     estimated scf accuracy    <       0.05379471 Ry

     iteration #  3     ecut=    70.00 Ry     beta= 0.70
     Davidson diagonalization with overlap
     ethr =  4.26E-05,  avg # of iterations =  2.0

     total cpu time spent up to now is      341.5 secs

     total energy              =    -665.34027336 Ry
     estimated scf accuracy    <       0.01081796 Ry

     iteration #  4     ecut=    70.00 Ry     beta= 0.70
     Davidson diagonalization with overlap
     ethr =  1.50E-05,  avg # of iterations =  1.0

     total cpu time spent up to now is      347.6 secs

     total energy              =    -665.33934314 Ry
     estimated scf accuracy    <       0.00315094 Ry

     iteration #  5     ecut=    70.00 Ry     beta= 0.70
     Davidson diagonalization with overlap
     ethr =  4.38E-06,  avg # of iterations =  2.0

     total cpu time spent up to now is      355.0 secs

     total energy              =    -665.33942986 Ry
     estimated scf accuracy    <       0.00037751 Ry

     iteration #  6     ecut=    70.00 Ry     beta= 0.70
     Davidson diagonalization with overlap
     ethr =  5.24E-07,  avg # of iterations =  2.9

     total cpu time spent up to now is      363.7 secs

     total energy              =    -665.33960474 Ry
     estimated scf accuracy    <       0.00011703 Ry

     iteration #  7     ecut=    70.00 Ry     beta= 0.70
     Davidson diagonalization with overlap
     ethr =  1.63E-07,  avg # of iterations =  1.1

     total cpu time spent up to now is      369.9 secs

     total energy              =    -665.33960373 Ry
     estimated scf accuracy    <       0.00001414 Ry

     iteration #  8     ecut=    70.00 Ry     beta= 0.70
     Davidson diagonalization with overlap
     ethr =  1.96E-08,  avg # of iterations =  2.3

     total cpu time spent up to now is      378.3 secs

     total energy              =    -665.33960894 Ry
     estimated scf accuracy    <       0.00000102 Ry

     iteration #  9     ecut=    70.00 Ry     beta= 0.70
     Davidson diagonalization with overlap
     ethr =  1.42E-09,  avg # of iterations =  2.1

     total cpu time spent up to now is      385.2 secs

     total energy              =    -665.33960899 Ry
     estimated scf accuracy    <       0.00000010 Ry

     iteration # 10     ecut=    70.00 Ry     beta= 0.70
     Davidson diagonalization with overlap
     ethr =  1.46E-10,  avg # of iterations =  3.4

     total cpu time spent up to now is      394.2 secs

     total energy              =    -665.33960903 Ry
     estimated scf accuracy    <       0.00000005 Ry

     iteration # 11     ecut=    70.00 Ry     beta= 0.70
     Davidson diagonalization with overlap
     ethr =  6.55E-11,  avg # of iterations =  1.1

     total cpu time spent up to now is      400.3 secs

     total energy              =    -665.33960902 Ry
     estimated scf accuracy    <       0.00000002 Ry

     iteration # 12     ecut=    70.00 Ry     beta= 0.70
     Davidson diagonalization with overlap
     ethr =  3.28E-11,  avg # of iterations =  1.6

     total cpu time spent up to now is      406.7 secs

     total energy              =    -665.33960902 Ry
     estimated scf accuracy    <          4.9E-09 Ry

     iteration # 13     ecut=    70.00 Ry     beta= 0.70
     Davidson diagonalization with overlap
     ethr =  6.76E-12,  avg # of iterations =  2.4

     total cpu time spent up to now is      414.8 secs

     End of self-consistent calculation

     Number of k-points >= 100: set verbosity='high' to print the bands.

     the Fermi energy is     3.3042 ev

!    total energy              =    -665.33960902 Ry
     estimated scf accuracy    <          5.6E-11 Ry
     smearing contrib. (-TS)   =       0.00000000 Ry
     internal energy E=F+TS    =    -665.33960902 Ry

     The total energy is F=E-TS. E is the sum of the following terms:
     one-electron contribution =    -486.20233942 Ry
     hartree contribution      =     256.37815568 Ry
     xc contribution           =    -100.12539445 Ry
     ewald contribution        =    -266.06081522 Ry
     one-center paw contrib.   =     -69.32921562 Ry

     convergence has been achieved in  13 iterations

     Forces acting on atoms (cartesian axes, Ry/au):

     atom    1 type  2   force =     0.00000000    0.00000000    0.00000000
     atom    2 type  2   force =     0.00000000   -0.00000000    0.00000000
     atom    3 type  3   force =    -0.00000000    0.00000000    0.00000000
     atom    4 type  3   force =     0.00000000    0.00000000   -0.00000000
     atom    5 type  3   force =    -0.00034723    0.00028876    0.00007607
     atom    6 type  3   force =     0.00034723    0.00028876   -0.00007607
     atom    7 type  3   force =     0.00034723   -0.00028876   -0.00007607
     atom    8 type  3   force =    -0.00034723   -0.00028876    0.00007607
     atom    9 type  1   force =     0.00084983   -0.00117632   -0.00021646
     atom   10 type  1   force =    -0.00084983   -0.00117632    0.00021646
     atom   11 type  1   force =    -0.00084983    0.00117632    0.00021646
     atom   12 type  1   force =     0.00084983    0.00117632   -0.00021646
     atom   13 type  1   force =    -0.00129669    0.00099543    0.00018957
     atom   14 type  1   force =     0.00129669    0.00099543   -0.00018957
     atom   15 type  1   force =     0.00129669   -0.00099543   -0.00018957
     atom   16 type  1   force =    -0.00129669   -0.00099543    0.00018957
     atom   17 type  1   force =     0.00025147    0.00023811    0.00144658
     atom   18 type  1   force =    -0.00025147    0.00023811   -0.00144658
     atom   19 type  1   force =    -0.00025147   -0.00023811   -0.00144658
     atom   20 type  1   force =     0.00025147   -0.00023811    0.00144658

     Total force =     0.005398     Total SCF correction =     0.000001


     Computing stress (Cartesian axis) and pressure

          total   stress  (Ry/bohr**3)                   (kbar)     P=        2.68
   0.00001774   0.00000000   0.00000087            2.61        0.00        0.13
   0.00000000   0.00001675   0.00000000            0.00        2.46        0.00
   0.00000087   0.00000000   0.00002011            0.13        0.00        2.96

     Energy error            =      6.6E-04 Ry
     Gradient error          =      1.4E-03 Ry/Bohr
     Cell gradient error     =      3.0E+00 kbar

     number of scf cycles    =   4
     number of bfgs steps    =   3

     enthalpy           old  =    -665.3389494597 Ry
     enthalpy           new  =    -665.3396090182 Ry

     CASE: enthalpy          _new < enthalpy          _old

     new trust radius        =       0.0194328728 bohr
     new conv_thr            =       0.0000000001 Ry

     new unit-cell volume =   1547.96351 a.u.^3 (   229.38453 Ang^3 )
     density =      1.47668 g/cm^3

CELL_PARAMETERS (alat= 10.00307627)
   1.011744871   0.000000000   0.000110128
   0.000000000   1.049181744   0.000000000
  -1.011143580   0.000000000   1.456818448

ATOMIC_POSITIONS (crystal)
Al            0.0000000000        0.5000000000        0.5000000000
Al           -0.0000000000       -0.0000000000       -0.0000000000
Na            0.5000000000        0.5000000000        0.0000000000
Na            0.5000000000       -0.0000000000        0.5000000000
Na            0.7574362148        0.4529973166        0.7465841422
Na            0.2425637852        0.9529973166        0.7534158578
Na            0.2425637852        0.5470026834        0.2534158578
Na            0.7574362148        0.0470026834        0.2465841422
H             0.9018141802        0.2674622935        0.0631022539
H             0.0981858198        0.7674622935        0.4368977461
H             0.0981858198        0.7325377065        0.9368977461
H             0.9018141802        0.2325377065        0.5631022539
H             0.2286649140        0.3302240778        0.4565055312
H             0.7713350860        0.8302240778        0.0434944688
H             0.7713350860        0.6697759222        0.5434944688
H             0.2286649140        0.1697759222        0.9565055312
H             0.6833250509        0.4523639370        0.2830693631
H             0.3166749491        0.9523639370        0.2169306369
H             0.3166749491        0.5476360630        0.7169306369
H             0.6833250509        0.0476360630        0.7830693631



     Writing config-only to output data dir ./Na3AlH6.save/
     NEW-OLD atomic charge density approx. for the potential
     extrapolated charge   72.50820, renormalised to   72.00000

     total cpu time spent up to now is      419.9 secs

     Self-consistent Calculation

     iteration #  1     ecut=    70.00 Ry     beta= 0.70
     Davidson diagonalization with overlap
     ethr =  1.00E-06,  avg # of iterations =  4.2

     total cpu time spent up to now is      431.6 secs

     total energy              =    -665.32222444 Ry
     estimated scf accuracy    <       0.01032428 Ry

     iteration #  2     ecut=    70.00 Ry     beta= 0.70
     Davidson diagonalization with overlap
     ethr =  1.43E-05,  avg # of iterations =  3.0

     total cpu time spent up to now is      441.7 secs

     total energy              =    -665.34003446 Ry
     estimated scf accuracy    <       0.01792213 Ry

     iteration #  3     ecut=    70.00 Ry     beta= 0.70
     Davidson diagonalization with overlap
     ethr =  1.43E-05,  avg # of iterations =  2.0

     total cpu time spent up to now is      449.1 secs

     total energy              =    -665.34001144 Ry
     estimated scf accuracy    <       0.00355465 Ry

     iteration #  4     ecut=    70.00 Ry     beta= 0.70
     Davidson diagonalization with overlap
     ethr =  4.94E-06,  avg # of iterations =  1.0

     total cpu time spent up to now is      455.2 secs

     total energy              =    -665.33962435 Ry
     estimated scf accuracy    <       0.00109877 Ry

     iteration #  5     ecut=    70.00 Ry     beta= 0.70
     Davidson diagonalization with overlap
     ethr =  1.53E-06,  avg # of iterations =  2.0

     total cpu time spent up to now is      462.6 secs

     total energy              =    -665.33971405 Ry
     estimated scf accuracy    <       0.00008811 Ry

     iteration #  6     ecut=    70.00 Ry     beta= 0.70
     Davidson diagonalization with overlap
     ethr =  1.22E-07,  avg # of iterations =  3.0

     total cpu time spent up to now is      471.5 secs

     total energy              =    -665.33975913 Ry
     estimated scf accuracy    <       0.00002185 Ry

     iteration #  7     ecut=    70.00 Ry     beta= 0.70
     Davidson diagonalization with overlap
     ethr =  3.03E-08,  avg # of iterations =  1.0

     total cpu time spent up to now is      478.1 secs

     total energy              =    -665.33975532 Ry
     estimated scf accuracy    <       0.00000678 Ry

     iteration #  8     ecut=    70.00 Ry     beta= 0.70
     Davidson diagonalization with overlap
     ethr =  9.42E-09,  avg # of iterations =  2.0

     total cpu time spent up to now is      486.4 secs

     total energy              =    -665.33975721 Ry
     estimated scf accuracy    <       0.00000013 Ry

     iteration #  9     ecut=    70.00 Ry     beta= 0.70
     Davidson diagonalization with overlap
     ethr =  1.82E-10,  avg # of iterations =  3.5

     total cpu time spent up to now is      494.0 secs

     total energy              =    -665.33975723 Ry
     estimated scf accuracy    <       0.00000002 Ry

     iteration # 10     ecut=    70.00 Ry     beta= 0.70
     Davidson diagonalization with overlap
     ethr =  2.86E-11,  avg # of iterations =  2.5

     total cpu time spent up to now is      502.5 secs

     total energy              =    -665.33975722 Ry
     estimated scf accuracy    <       0.00000004 Ry

     iteration # 11     ecut=    70.00 Ry     beta= 0.70
     Davidson diagonalization with overlap
     ethr =  2.86E-11,  avg # of iterations =  2.0

     total cpu time spent up to now is      510.0 secs

     total energy              =    -665.33975722 Ry
     estimated scf accuracy    <          8.8E-09 Ry

     iteration # 12     ecut=    70.00 Ry     beta= 0.70
     Davidson diagonalization with overlap
     ethr =  1.22E-11,  avg # of iterations =  2.0

     total cpu time spent up to now is      518.2 secs

     total energy              =    -665.33975722 Ry
     estimated scf accuracy    <          7.6E-10 Ry

     iteration # 13     ecut=    70.00 Ry     beta= 0.70
     Davidson diagonalization with overlap
     ethr =  1.06E-12,  avg # of iterations =  1.4

     total cpu time spent up to now is      524.5 secs

     total energy              =    -665.33975722 Ry
     estimated scf accuracy    <          8.5E-10 Ry

     iteration # 14     ecut=    70.00 Ry     beta= 0.70
     Davidson diagonalization with overlap
     ethr =  1.06E-12,  avg # of iterations =  2.0

     total cpu time spent up to now is      531.9 secs

     End of self-consistent calculation

     Number of k-points >= 100: set verbosity='high' to print the bands.

     the Fermi energy is     3.2395 ev

!    total energy              =    -665.33975722 Ry
     estimated scf accuracy    <          4.5E-11 Ry
     smearing contrib. (-TS)   =       0.00000000 Ry
     internal energy E=F+TS    =    -665.33975722 Ry

     The total energy is F=E-TS. E is the sum of the following terms:
     one-electron contribution =    -487.22744459 Ry
     hartree contribution      =     256.76027208 Ry
     xc contribution           =    -100.10256188 Ry
     ewald contribution        =    -265.44207581 Ry
     one-center paw contrib.   =     -69.32794702 Ry

     convergence has been achieved in  14 iterations

     Forces acting on atoms (cartesian axes, Ry/au):

     atom    1 type  2   force =     0.00000000    0.00000000    0.00000000
     atom    2 type  2   force =     0.00000000    0.00000000    0.00000000
     atom    3 type  3   force =     0.00000000   -0.00000000    0.00000000
     atom    4 type  3   force =     0.00000000    0.00000000    0.00000000
     atom    5 type  3   force =    -0.00030584    0.00026151    0.00002231
     atom    6 type  3   force =     0.00030584    0.00026151   -0.00002231
     atom    7 type  3   force =     0.00030584   -0.00026151   -0.00002231
     atom    8 type  3   force =    -0.00030584   -0.00026151    0.00002231
     atom    9 type  1   force =     0.00102361   -0.00150043   -0.00031336
     atom   10 type  1   force =    -0.00102361   -0.00150043    0.00031336
     atom   11 type  1   force =    -0.00102361    0.00150043    0.00031336
     atom   12 type  1   force =     0.00102361    0.00150043   -0.00031336
     atom   13 type  1   force =    -0.00163052    0.00120980    0.00024675
     atom   14 type  1   force =     0.00163052    0.00120980   -0.00024675
     atom   15 type  1   force =     0.00163052   -0.00120980   -0.00024675
     atom   16 type  1   force =    -0.00163052   -0.00120980    0.00024675
     atom   17 type  1   force =     0.00040312    0.00024641    0.00186543
     atom   18 type  1   force =    -0.00040312    0.00024641   -0.00186543
     atom   19 type  1   force =    -0.00040312   -0.00024641   -0.00186543
     atom   20 type  1   force =     0.00040312   -0.00024641    0.00186543

     Total force =     0.006766     Total SCF correction =     0.000003


     Computing stress (Cartesian axis) and pressure

          total   stress  (Ry/bohr**3)                   (kbar)     P=        0.17
   0.00000081   0.00000000   0.00000090            0.12        0.00        0.13
   0.00000000  -0.00000039   0.00000000            0.00       -0.06        0.00
   0.00000090   0.00000000   0.00000304            0.13        0.00        0.45

     Energy error            =      1.5E-04 Ry
     Gradient error          =      1.9E-03 Ry/Bohr
     Cell gradient error     =      4.5E-01 kbar

     number of scf cycles    =   5
     number of bfgs steps    =   4

     enthalpy           old  =    -665.3396090182 Ry
     enthalpy           new  =    -665.3397572221 Ry

     CASE: enthalpy          _new < enthalpy          _old

     new trust radius        =       0.0081606062 bohr
     new conv_thr            =       0.0000000001 Ry

     new unit-cell volume =   1552.32766 a.u.^3 (   230.03123 Ang^3 )
     density =      1.47252 g/cm^3

CELL_PARAMETERS (alat= 10.00307627)
   1.012675353   0.000000000   0.000154555
   0.000000000   1.050084900   0.000000000
  -1.012009708   0.000000000   1.458283650

ATOMIC_POSITIONS (crystal)
Al           -0.0000000000        0.5000000000        0.5000000000
Al           -0.0000000000        0.0000000000       -0.0000000000
Na            0.5000000000        0.5000000000        0.0000000000
Na            0.5000000000       -0.0000000000        0.5000000000
Na            0.7573748170        0.4530576279        0.7465950278
Na            0.2426251830        0.9530576279        0.7534049722
Na            0.2426251830        0.5469423721        0.2534049722
Na            0.7573748170        0.0469423721        0.2465950278
H             0.9019520396        0.2672482599        0.0630761761
H             0.0980479604        0.7672482599        0.4369238239
H             0.0980479604        0.7327517401        0.9369238239
H             0.9019520396        0.2327517401        0.5630761761
H             0.2284433213        0.3304062021        0.4565293321
H             0.7715566787        0.8304062021        0.0434706679
H             0.7715566787        0.6695937979        0.5434706679
H             0.2284433213        0.1695937979        0.9565293321
H             0.6835637815        0.4524072912        0.2832617344
H             0.3164362185        0.9524072912        0.2167382656
H             0.3164362185        0.5475927088        0.7167382656
H             0.6835637815        0.0475927088        0.7832617344



     Writing config-only to output data dir ./Na3AlH6.save/
     NEW-OLD atomic charge density approx. for the potential
     extrapolated charge   72.20230, renormalised to   72.00000

     total cpu time spent up to now is      536.9 secs

     Self-consistent Calculation

     iteration #  1     ecut=    70.00 Ry     beta= 0.70
     Davidson diagonalization with overlap
     ethr =  1.00E-06,  avg # of iterations =  3.0

     total cpu time spent up to now is      546.4 secs

     total energy              =    -665.33709083 Ry
     estimated scf accuracy    <       0.00164253 Ry

     iteration #  2     ecut=    70.00 Ry     beta= 0.70
     Davidson diagonalization with overlap
     ethr =  2.28E-06,  avg # of iterations =  3.0

     total cpu time spent up to now is      557.0 secs

     total energy              =    -665.33985193 Ry
     estimated scf accuracy    <       0.00276068 Ry

     iteration #  3     ecut=    70.00 Ry     beta= 0.70
     Davidson diagonalization with overlap
     ethr =  2.28E-06,  avg # of iterations =  2.0

     total cpu time spent up to now is      564.4 secs

     total energy              =    -665.33978563 Ry
     estimated scf accuracy    <       0.00053955 Ry

     iteration #  4     ecut=    70.00 Ry     beta= 0.70
     Davidson diagonalization with overlap
     ethr =  7.49E-07,  avg # of iterations =  2.0

     total cpu time spent up to now is      571.8 secs

     total energy              =    -665.33979135 Ry
     estimated scf accuracy    <       0.00006920 Ry

     iteration #  5     ecut=    70.00 Ry     beta= 0.70
     Davidson diagonalization with overlap
     ethr =  9.61E-08,  avg # of iterations =  2.0

     total cpu time spent up to now is      580.1 secs

     total energy              =    -665.33981738 Ry
     estimated scf accuracy    <       0.00000495 Ry

     iteration #  6     ecut=    70.00 Ry     beta= 0.70
     Davidson diagonalization with overlap
     ethr =  6.88E-09,  avg # of iterations =  2.3

     total cpu time spent up to now is      588.2 secs

     total energy              =    -665.33981792 Ry
     estimated scf accuracy    <       0.00000040 Ry

     iteration #  7     ecut=    70.00 Ry     beta= 0.70
     Davidson diagonalization with overlap
     ethr =  5.51E-10,  avg # of iterations =  3.5

     total cpu time spent up to now is      595.6 secs

     total energy              =    -665.33981795 Ry
     estimated scf accuracy    <       0.00000019 Ry

     iteration #  8     ecut=    70.00 Ry     beta= 0.70
     Davidson diagonalization with overlap
     ethr =  2.57E-10,  avg # of iterations =  1.0

     total cpu time spent up to now is      601.7 secs

     total energy              =    -665.33981789 Ry
     estimated scf accuracy    <       0.00000015 Ry

     iteration #  9     ecut=    70.00 Ry     beta= 0.70
     Davidson diagonalization with overlap
     ethr =  2.08E-10,  avg # of iterations =  2.0

     total cpu time spent up to now is      608.8 secs

     total energy              =    -665.33981790 Ry
     estimated scf accuracy    <       0.00000013 Ry

     iteration # 10     ecut=    70.00 Ry     beta= 0.70
     Davidson diagonalization with overlap
     ethr =  1.80E-10,  avg # of iterations =  2.0

     total cpu time spent up to now is      615.9 secs

     total energy              =    -665.33981789 Ry
     estimated scf accuracy    <       0.00000003 Ry

     iteration # 11     ecut=    70.00 Ry     beta= 0.70
     Davidson diagonalization with overlap
     ethr =  4.84E-11,  avg # of iterations =  2.0

     total cpu time spent up to now is      624.1 secs

     total energy              =    -665.33981790 Ry
     estimated scf accuracy    <          5.0E-09 Ry

     iteration # 12     ecut=    70.00 Ry     beta= 0.70
     Davidson diagonalization with overlap
     ethr =  6.97E-12,  avg # of iterations =  1.0

     total cpu time spent up to now is      630.3 secs

     total energy              =    -665.33981790 Ry
     estimated scf accuracy    <          2.2E-09 Ry

     iteration # 13     ecut=    70.00 Ry     beta= 0.70
     Davidson diagonalization with overlap
     ethr =  3.08E-12,  avg # of iterations =  2.0

     total cpu time spent up to now is      637.3 secs

     total energy              =    -665.33981790 Ry
     estimated scf accuracy    <          3.9E-10 Ry

     iteration # 14     ecut=    70.00 Ry     beta= 0.70
     Davidson diagonalization with overlap
     ethr =  5.35E-13,  avg # of iterations =  2.2

     total cpu time spent up to now is      644.4 secs

     End of self-consistent calculation

     Number of k-points >= 100: set verbosity='high' to print the bands.

     the Fermi energy is     3.2149 ev

!    total energy              =    -665.33981790 Ry
     estimated scf accuracy    <          2.0E-11 Ry
     smearing contrib. (-TS)   =       0.00000000 Ry
     internal energy E=F+TS    =    -665.33981790 Ry

     The total energy is F=E-TS. E is the sum of the following terms:
     one-electron contribution =    -487.60986533 Ry
     hartree contribution      =     256.89815526 Ry
     xc contribution           =    -100.09577390 Ry
     ewald contribution        =    -265.20450615 Ry
     one-center paw contrib.   =     -69.32782778 Ry

     convergence has been achieved in  14 iterations

     Forces acting on atoms (cartesian axes, Ry/au):

     atom    1 type  2   force =     0.00000000    0.00000000    0.00000000
     atom    2 type  2   force =     0.00000000    0.00000000    0.00000000
     atom    3 type  3   force =    -0.00000000    0.00000000   -0.00000000
     atom    4 type  3   force =     0.00000000    0.00000000    0.00000000
     atom    5 type  3   force =    -0.00027547    0.00025560    0.00000537
     atom    6 type  3   force =     0.00027547    0.00025560   -0.00000537
     atom    7 type  3   force =     0.00027547   -0.00025560   -0.00000537
     atom    8 type  3   force =    -0.00027547   -0.00025560    0.00000537
     atom    9 type  1   force =     0.00090896   -0.00132191   -0.00026314
     atom   10 type  1   force =    -0.00090896   -0.00132191    0.00026314
     atom   11 type  1   force =    -0.00090896    0.00132191    0.00026314
     atom   12 type  1   force =     0.00090896    0.00132191   -0.00026314
     atom   13 type  1   force =    -0.00143421    0.00105552    0.00020780
     atom   14 type  1   force =     0.00143421    0.00105552   -0.00020780
     atom   15 type  1   force =     0.00143421   -0.00105552   -0.00020780
     atom   16 type  1   force =    -0.00143421   -0.00105552    0.00020780
     atom   17 type  1   force =     0.00037318    0.00019899    0.00167933
     atom   18 type  1   force =    -0.00037318    0.00019899   -0.00167933
     atom   19 type  1   force =    -0.00037318   -0.00019899   -0.00167933
     atom   20 type  1   force =     0.00037318   -0.00019899    0.00167933

     Total force =     0.005999     Total SCF correction =     0.000003


     Computing stress (Cartesian axis) and pressure

          total   stress  (Ry/bohr**3)                   (kbar)     P=       -0.57
  -0.00000404   0.00000000   0.00000082           -0.59        0.00        0.12
   0.00000000  -0.00000544   0.00000000            0.00       -0.80        0.00
   0.00000082   0.00000000  -0.00000219            0.12        0.00       -0.32

     Energy error            =      6.1E-05 Ry
     Gradient error          =      1.7E-03 Ry/Bohr
     Cell gradient error     =      8.0E-01 kbar

     number of scf cycles    =   6
     number of bfgs steps    =   5

     enthalpy           old  =    -665.3397572221 Ry
     enthalpy           new  =    -665.3398178961 Ry

     CASE: enthalpy          _new < enthalpy          _old

     new trust radius        =       0.0089799759 bohr
     new conv_thr            =            1.0E-10 Ry

     new unit-cell volume =   1556.74792 a.u.^3 (   230.68624 Ang^3 )
     density =      1.46834 g/cm^3

CELL_PARAMETERS (alat= 10.00307627)
   1.013607904   0.000000000   0.000242506
   0.000000000   1.050912027   0.000000000
  -1.012815261   0.000000000   1.459852982

ATOMIC_POSITIONS (crystal)
Al           -0.0000000000        0.5000000000        0.5000000000
Al           -0.0000000000        0.0000000000       -0.0000000000
Na            0.5000000000        0.5000000000       -0.0000000000
Na            0.5000000000       -0.0000000000        0.5000000000
Na            0.7572548841        0.4531728431        0.7466086350
Na            0.2427451159        0.9531728431        0.7533913650
Na            0.2427451159        0.5468271569        0.2533913650
Na            0.7572548841        0.0468271569        0.2466086350
H             0.9022378448        0.2667836576        0.0630159316
H             0.0977621552        0.7667836576        0.4369840684
H             0.0977621552        0.7332163424        0.9369840684
H             0.9022378448        0.2332163424        0.5630159316
H             0.2279665200        0.3307906287        0.4565809533
H             0.7720334800        0.8307906287        0.0434190467
H             0.7720334800        0.6692093713        0.5434190467
H             0.2279665200        0.1692093713        0.9565809533
H             0.6841030557        0.4524900881        0.2836843192
H             0.3158969443        0.9524900881        0.2163156808
H             0.3158969443        0.5475099119        0.7163156808
H             0.6841030557        0.0475099119        0.7836843192



     Writing config-only to output data dir ./Na3AlH6.save/
     NEW-OLD atomic charge density approx. for the potential
     extrapolated charge   72.20432, renormalised to   72.00000

     total cpu time spent up to now is      649.6 secs

     Self-consistent Calculation

     iteration #  1     ecut=    70.00 Ry     beta= 0.70
     Davidson diagonalization with overlap
     ethr =  1.00E-06,  avg # of iterations =  3.1

     total cpu time spent up to now is      660.0 secs

     total energy              =    -665.33704038 Ry
     estimated scf accuracy    <       0.00180363 Ry

     iteration #  2     ecut=    70.00 Ry     beta= 0.70
     Davidson diagonalization with overlap
     ethr =  2.51E-06,  avg # of iterations =  3.0

     total cpu time spent up to now is      670.0 secs

     total energy              =    -665.33992044 Ry
     estimated scf accuracy    <       0.00289009 Ry

     iteration #  3     ecut=    70.00 Ry     beta= 0.70
     Davidson diagonalization with overlap
     ethr =  2.51E-06,  avg # of iterations =  2.0

     total cpu time spent up to now is      677.4 secs

     total energy              =    -665.33974077 Ry
     estimated scf accuracy    <       0.00054505 Ry

     iteration #  4     ecut=    70.00 Ry     beta= 0.70
     Davidson diagonalization with overlap
     ethr =  7.57E-07,  avg # of iterations =  2.0

     total cpu time spent up to now is      685.6 secs

     total energy              =    -665.33991637 Ry
     estimated scf accuracy    <       0.00000783 Ry

     iteration #  5     ecut=    70.00 Ry     beta= 0.70
     Davidson diagonalization with overlap
     ethr =  1.09E-08,  avg # of iterations =  3.1

     total cpu time spent up to now is      695.5 secs

     total energy              =    -665.33989208 Ry
     estimated scf accuracy    <       0.00005470 Ry

     iteration #  6     ecut=    70.00 Ry     beta= 0.70
     Davidson diagonalization with overlap
     ethr =  1.09E-08,  avg # of iterations =  2.8

     total cpu time spent up to now is      704.2 secs

     total energy              =    -665.33989937 Ry
     estimated scf accuracy    <       0.00000161 Ry

     iteration #  7     ecut=    70.00 Ry     beta= 0.70
     Davidson diagonalization with overlap
     ethr =  2.24E-09,  avg # of iterations =  2.0

     total cpu time spent up to now is      712.5 secs

     total energy              =    -665.33989985 Ry
     estimated scf accuracy    <          5.6E-10 Ry

     iteration #  8     ecut=    70.00 Ry     beta= 0.70
     Davidson diagonalization with overlap
     ethr =  7.73E-13,  avg # of iterations =  6.8

     total cpu time spent up to now is      726.1 secs

     total energy              =    -665.33989986 Ry
     estimated scf accuracy    <          6.1E-10 Ry

     iteration #  9     ecut=    70.00 Ry     beta= 0.70
     Davidson diagonalization with overlap
     ethr =  7.73E-13,  avg # of iterations =  2.1

     total cpu time spent up to now is      734.8 secs

     total energy              =    -665.33989986 Ry
     estimated scf accuracy    <          7.2E-10 Ry

     iteration # 10     ecut=    70.00 Ry     beta= 0.70
     Davidson diagonalization with overlap
     ethr =  7.73E-13,  avg # of iterations =  2.0

     total cpu time spent up to now is      743.3 secs

     End of self-consistent calculation

     Number of k-points >= 100: set verbosity='high' to print the bands.

     the Fermi energy is     3.1919 ev

!    total energy              =    -665.33989986 Ry
     estimated scf accuracy    <          7.9E-12 Ry
     smearing contrib. (-TS)   =       0.00000000 Ry
     internal energy E=F+TS    =    -665.33989986 Ry

     The total energy is F=E-TS. E is the sum of the following terms:
     one-electron contribution =    -487.95854190 Ry
     hartree contribution      =     257.01632962 Ry
     xc contribution           =    -100.09247318 Ry
     ewald contribution        =    -264.97691768 Ry
     one-center paw contrib.   =     -69.32829672 Ry

     convergence has been achieved in  10 iterations

     Forces acting on atoms (cartesian axes, Ry/au):

     atom    1 type  2   force =     0.00000000   -0.00000000    0.00000000
     atom    2 type  2   force =     0.00000000   -0.00000000    0.00000000
     atom    3 type  3   force =     0.00000000   -0.00000000   -0.00000000
     atom    4 type  3   force =    -0.00000000    0.00000000    0.00000000
     atom    5 type  3   force =    -0.00022078    0.00025461   -0.00000564
     atom    6 type  3   force =     0.00022078    0.00025461    0.00000564
     atom    7 type  3   force =     0.00022078   -0.00025461    0.00000564
     atom    8 type  3   force =    -0.00022078   -0.00025461   -0.00000564
     atom    9 type  1   force =     0.00050612   -0.00066289   -0.00007576
     atom   10 type  1   force =    -0.00050612   -0.00066289    0.00007576
     atom   11 type  1   force =    -0.00050612    0.00066289    0.00007576
     atom   12 type  1   force =     0.00050612    0.00066289   -0.00007576
     atom   13 type  1   force =    -0.00072424    0.00052794    0.00007241
     atom   14 type  1   force =     0.00072424    0.00052794   -0.00007241
     atom   15 type  1   force =     0.00072424   -0.00052794   -0.00007241
     atom   16 type  1   force =    -0.00072424   -0.00052794    0.00007241
     atom   17 type  1   force =     0.00020186    0.00007041    0.00094169
     atom   18 type  1   force =    -0.00020186    0.00007041   -0.00094169
     atom   19 type  1   force =    -0.00020186   -0.00007041   -0.00094169
     atom   20 type  1   force =     0.00020186   -0.00007041    0.00094169

     Total force =     0.003197     Total SCF correction =     0.000001


     Computing stress (Cartesian axis) and pressure

          total   stress  (Ry/bohr**3)                   (kbar)     P=       -0.88
  -0.00000574   0.00000000   0.00000058           -0.84        0.00        0.09
   0.00000000  -0.00000749   0.00000000            0.00       -1.10        0.00
   0.00000058   0.00000000  -0.00000478            0.09        0.00       -0.70

     Energy error            =      8.2E-05 Ry
     Gradient error          =      9.4E-04 Ry/Bohr
     Cell gradient error     =      1.1E+00 kbar

     number of scf cycles    =   7
     number of bfgs steps    =   6

     enthalpy           old  =    -665.3398178961 Ry
     enthalpy           new  =    -665.3398998604 Ry

     CASE: enthalpy          _new < enthalpy          _old

     new trust radius        =       0.0047081409 bohr
     new conv_thr            =            1.0E-10 Ry

     new unit-cell volume =   1557.22106 a.u.^3 (   230.75635 Ang^3 )
     density =      1.46790 g/cm^3

CELL_PARAMETERS (alat= 10.00307627)
   1.013707531   0.000000000   0.000306551
   0.000000000   1.050880195   0.000000000
  -1.012822668   0.000000000   1.460133478

ATOMIC_POSITIONS (crystal)
Al           -0.0000000000        0.5000000000        0.5000000000
Al           -0.0000000000        0.0000000000       -0.0000000000
Na            0.5000000000        0.5000000000        0.0000000000
Na            0.5000000000       -0.0000000000        0.5000000000
Na            0.7571648326        0.4532628034        0.7466134015
Na            0.2428351674        0.9532628034        0.7533865985
Na            0.2428351674        0.5467371966        0.2533865985
Na            0.7571648326        0.0467371966        0.2466134015
H             0.9024446333        0.2664569013        0.0629769839
H             0.0975553667        0.7664569013        0.4370230161
H             0.0975553667        0.7335430987        0.9370230161
H             0.9024446333        0.2335430987        0.5629769839
H             0.2276294183        0.3310564854        0.4566144498
H             0.7723705817        0.8310564854        0.0433855502
H             0.7723705817        0.6689435146        0.5433855502
H             0.2276294183        0.1689435146        0.9566144498
H             0.6845014172        0.4525401137        0.2839922924
H             0.3154985828        0.9525401137        0.2160077076
H             0.3154985828        0.5474598863        0.7160077076
H             0.6845014172        0.0474598863        0.7839922924



     Writing config-only to output data dir ./Na3AlH6.save/
     NEW-OLD atomic charge density approx. for the potential
     extrapolated charge   72.02186, renormalised to   72.00000

     total cpu time spent up to now is      748.4 secs

     Self-consistent Calculation

     iteration #  1     ecut=    70.00 Ry     beta= 0.70
     Davidson diagonalization with overlap
     ethr =  1.00E-06,  avg # of iterations =  2.0

     Threshold (ethr) on eigenvalues was too large:
     Diagonalizing with lowered threshold

     Davidson diagonalization with overlap
     ethr =  7.01E-08,  avg # of iterations =  2.0

     total cpu time spent up to now is      763.2 secs

     total energy              =    -665.33988263 Ry
     estimated scf accuracy    <       0.00005569 Ry

     iteration #  2     ecut=    70.00 Ry     beta= 0.70
     Davidson diagonalization with overlap
     ethr =  7.73E-08,  avg # of iterations =  2.1

     total cpu time spent up to now is      771.6 secs

     total energy              =    -665.33992672 Ry
     estimated scf accuracy    <       0.00003939 Ry

     iteration #  3     ecut=    70.00 Ry     beta= 0.70
     Davidson diagonalization with overlap
     ethr =  5.47E-08,  avg # of iterations =  1.2

     total cpu time spent up to now is      778.3 secs

     total energy              =    -665.33992635 Ry
     estimated scf accuracy    <       0.00000446 Ry

     iteration #  4     ecut=    70.00 Ry     beta= 0.70
     Davidson diagonalization with overlap
     ethr =  6.19E-09,  avg # of iterations =  2.8

     total cpu time spent up to now is      787.0 secs

     total energy              =    -665.33992837 Ry
     estimated scf accuracy    <       0.00000126 Ry

     iteration #  5     ecut=    70.00 Ry     beta= 0.70
     Davidson diagonalization with overlap
     ethr =  1.75E-09,  avg # of iterations =  1.0

     total cpu time spent up to now is      793.1 secs

     total energy              =    -665.33992841 Ry
     estimated scf accuracy    <       0.00000017 Ry

     iteration #  6     ecut=    70.00 Ry     beta= 0.70
     Davidson diagonalization with overlap
     ethr =  2.37E-10,  avg # of iterations =  2.0

     total cpu time spent up to now is      799.7 secs

     total energy              =    -665.33992839 Ry
     estimated scf accuracy    <       0.00000005 Ry

     iteration #  7     ecut=    70.00 Ry     beta= 0.70
     Davidson diagonalization with overlap
     ethr =  6.86E-11,  avg # of iterations =  2.0

     total cpu time spent up to now is      808.1 secs

     total energy              =    -665.33992841 Ry
     estimated scf accuracy    <          1.6E-09 Ry

     iteration #  8     ecut=    70.00 Ry     beta= 0.70
     Davidson diagonalization with overlap
     ethr =  2.21E-12,  avg # of iterations =  4.0

     total cpu time spent up to now is      816.9 secs

     total energy              =    -665.33992841 Ry
     estimated scf accuracy    <          2.2E-09 Ry

     iteration #  9     ecut=    70.00 Ry     beta= 0.70
     Davidson diagonalization with overlap
     ethr =  2.21E-12,  avg # of iterations =  2.0

     total cpu time spent up to now is      824.8 secs

     End of self-consistent calculation

     Number of k-points >= 100: set verbosity='high' to print the bands.

     the Fermi energy is     3.1912 ev

!    total energy              =    -665.33992841 Ry
     estimated scf accuracy    <          9.3E-11 Ry
     smearing contrib. (-TS)   =       0.00000000 Ry
     internal energy E=F+TS    =    -665.33992841 Ry

     The total energy is F=E-TS. E is the sum of the following terms:
     one-electron contribution =    -487.95295115 Ry
     hartree contribution      =     257.00486804 Ry
     xc contribution           =    -100.09613108 Ry
     ewald contribution        =    -264.96669743 Ry
     one-center paw contrib.   =     -69.32901679 Ry

     convergence has been achieved in   9 iterations

     Forces acting on atoms (cartesian axes, Ry/au):

     atom    1 type  2   force =     0.00000000   -0.00000000    0.00000000
     atom    2 type  2   force =     0.00000000   -0.00000000    0.00000000
     atom    3 type  3   force =     0.00000000    0.00000000    0.00000000
     atom    4 type  3   force =     0.00000000    0.00000000    0.00000000
     atom    5 type  3   force =    -0.00018286    0.00025565   -0.00000017
     atom    6 type  3   force =     0.00018286    0.00025565    0.00000017
     atom    7 type  3   force =     0.00018286   -0.00025565    0.00000017
     atom    8 type  3   force =    -0.00018286   -0.00025565   -0.00000017
     atom    9 type  1   force =     0.00013512   -0.00004903    0.00009631
     atom   10 type  1   force =    -0.00013512   -0.00004903   -0.00009631
     atom   11 type  1   force =    -0.00013512    0.00004903   -0.00009631
     atom   12 type  1   force =     0.00013512    0.00004903    0.00009631
     atom   13 type  1   force =    -0.00006942    0.00005009   -0.00004950
     atom   14 type  1   force =     0.00006942    0.00005009    0.00004950
     atom   15 type  1   force =     0.00006942   -0.00005009    0.00004950
     atom   16 type  1   force =    -0.00006942   -0.00005009   -0.00004950
     atom   17 type  1   force =     0.00002362   -0.00003694    0.00023539
     atom   18 type  1   force =    -0.00002362   -0.00003694   -0.00023539
     atom   19 type  1   force =    -0.00002362    0.00003694   -0.00023539
     atom   20 type  1   force =     0.00002362    0.00003694    0.00023539

     Total force =     0.000885     Total SCF correction =     0.000003


     Computing stress (Cartesian axis) and pressure

          total   stress  (Ry/bohr**3)                   (kbar)     P=       -0.43
  -0.00000239   0.00000000   0.00000039           -0.35        0.00        0.06
   0.00000000  -0.00000428   0.00000000            0.00       -0.63        0.00
   0.00000039   0.00000000  -0.00000209            0.06        0.00       -0.31

     Energy error            =      2.9E-05 Ry
     Gradient error          =      2.6E-04 Ry/Bohr
     Cell gradient error     =      6.3E-01 kbar

     number of scf cycles    =   8
     number of bfgs steps    =   7

     enthalpy           old  =    -665.3398998604 Ry
     enthalpy           new  =    -665.3399284053 Ry

     CASE: enthalpy          _new < enthalpy          _old

     new trust radius        =       0.0021009280 bohr
     new conv_thr            =            1.0E-10 Ry

     new unit-cell volume =   1556.20638 a.u.^3 (   230.60599 Ang^3 )
     density =      1.46885 g/cm^3

CELL_PARAMETERS (alat= 10.00307627)
   1.013503883   0.000000000   0.000322361
   0.000000000   1.050600451   0.000000000
  -1.012596362   0.000000000   1.459848024

ATOMIC_POSITIONS (crystal)
Al           -0.0000000000        0.5000000000        0.5000000000
Al           -0.0000000000        0.0000000000       -0.0000000000
Na            0.5000000000        0.5000000000        0.0000000000
Na            0.5000000000       -0.0000000000        0.5000000000
Na            0.7571379361        0.4532964183        0.7466124675
Na            0.2428620639        0.9532964183        0.7533875325
Na            0.2428620639        0.5467035817        0.2533875325
Na            0.7571379361        0.0467035817        0.2466124675
H             0.9024845177        0.2664212130        0.0629802908
H             0.0975154823        0.7664212130        0.4370197092
H             0.0975154823        0.7335787870        0.9370197092
H             0.9024845177        0.2335787870        0.5629802908
H             0.2275870030        0.3310851877        0.4566137388
H             0.7724129970        0.8310851877        0.0433862612
H             0.7724129970        0.6689148123        0.5433862612
H             0.2275870030        0.1689148123        0.9566137388
H             0.6845621549        0.4525392294        0.2840398407
H             0.3154378451        0.9525392294        0.2159601593
H             0.3154378451        0.5474607706        0.7159601593
H             0.6845621549        0.0474607706        0.7840398407



     Writing config-only to output data dir ./Na3AlH6.save/
     NEW-OLD atomic charge density approx. for the potential
     extrapolated charge   71.95308, renormalised to   72.00000

     total cpu time spent up to now is      829.9 secs

     Self-consistent Calculation

     iteration #  1     ecut=    70.00 Ry     beta= 0.70
     Davidson diagonalization with overlap
     ethr =  1.00E-06,  avg # of iterations =  2.0

     total cpu time spent up to now is      837.9 secs

     total energy              =    -665.33979305 Ry
     estimated scf accuracy    <       0.00007906 Ry

     iteration #  2     ecut=    70.00 Ry     beta= 0.70
     Davidson diagonalization with overlap
     ethr =  1.10E-07,  avg # of iterations =  3.0

     total cpu time spent up to now is      847.5 secs

     total energy              =    -665.33993441 Ry
     estimated scf accuracy    <       0.00013871 Ry

     iteration #  3     ecut=    70.00 Ry     beta= 0.70
     Davidson diagonalization with overlap
     ethr =  1.10E-07,  avg # of iterations =  2.0

     total cpu time spent up to now is      854.9 secs

     total energy              =    -665.33992716 Ry
     estimated scf accuracy    <       0.00002836 Ry

     iteration #  4     ecut=    70.00 Ry     beta= 0.70
     Davidson diagonalization with overlap
     ethr =  3.94E-08,  avg # of iterations =  2.0

     total cpu time spent up to now is      862.6 secs

     total energy              =    -665.33993239 Ry
     estimated scf accuracy    <       0.00000088 Ry

     iteration #  5     ecut=    70.00 Ry     beta= 0.70
     Davidson diagonalization with overlap
[...]
  -1.012596362   0.000000000   1.459848024

ATOMIC_POSITIONS (crystal)
Al           -0.0000000000        0.5000000000        0.5000000000
Al           -0.0000000000        0.0000000000       -0.0000000000
Na            0.5000000000        0.5000000000       -0.0000000000
Na            0.5000000000       -0.0000000000        0.5000000000
Na            0.7571379361        0.4532964183        0.7466124675
Na            0.2428620639        0.9532964183        0.7533875325
Na            0.2428620639        0.5467035817        0.2533875325
Na            0.7571379361        0.0467035817        0.2466124675
H             0.9024845177        0.2664212130        0.0629802908
H             0.0975154823        0.7664212130        0.4370197092
H             0.0975154823        0.7335787870        0.9370197092
H             0.9024845177        0.2335787870        0.5629802908
H             0.2275870030        0.3310851877        0.4566137388
H             0.7724129970        0.8310851877        0.0433862612
H             0.7724129970        0.6689148123        0.5433862612
H             0.2275870030        0.1689148123        0.9566137388
H             0.6845621549        0.4525392294        0.2840398407
H             0.3154378451        0.9525392294        0.2159601593
H             0.3154378451        0.5474607706        0.7159601593
H             0.6845621549        0.0474607706        0.7840398407
End final coordinates



     Writing config-only to output data dir ./Na3AlH6.save/

     Final scf calculation at the relaxed structure.
     The G-vectors are recalculated for the final unit cell
     Results may differ from those at the preceding step.
 
     Parallelization info
     --------------------
     sticks:   dense  smooth     PW     G-vecs:    dense   smooth      PW
     Min          84      84     23                 4390     4390     655
     Max          85      85     24                 4396     4396     662
     Sum        2355    2355    669               122977   122977   18453
 
     Using Slab Decomposition
 


     bravais-lattice index     =            0
     lattice parameter (alat)  =      10.0031  a.u.
     unit-cell volume          =    1556.2064 (a.u.)^3
     number of atoms/cell      =           20
     number of atomic types    =            3
     number of electrons       =        72.00
     number of Kohn-Sham states=           43
     kinetic-energy cutoff     =      70.0000  Ry
     charge density cutoff     =     280.0000  Ry
     scf convergence threshold =      1.0E-10
     mixing beta               =       0.7000
     number of iterations used =            8  plain     mixing
     press convergence thresh. =      5.0E-01
     Exchange-correlation= PBE
                           (   1   4   3   4   0   0   0)

     celldm(1)=  10.003076  celldm(2)=   0.000000  celldm(3)=   0.000000
     celldm(4)=   0.000000  celldm(5)=   0.000000  celldm(6)=   0.000000

     crystal axes: (cart. coord. in units of alat)
               a(1) = (   1.013504   0.000000   0.000322 )  
               a(2) = (   0.000000   1.050600   0.000000 )  
               a(3) = (  -1.012596   0.000000   1.459848 )  

     reciprocal axes: (cart. coord. in units 2 pi/alat)
               b(1) = (  0.986458  0.000000  0.684238 )  
               b(2) = (  0.000000  0.951837  0.000000 )  
               b(3) = ( -0.000218  0.000000  0.684852 )  


     PseudoPot. # 1 for H  read from file:
     /scratch/antwerpen/209/vsc20922/pseudos/H.pbe-rrkjus_psl.1.0.0.UPF
     MD5 check sum: f52b6d4d1c606e5624b1dc7b2218f220
     Pseudo is Ultrasoft, Zval =  1.0
     Generated using "atomic" code by A. Dal Corso  v.5.1
     Using radial grid of  929 points,  2 beta functions with: 
                l(1) =   0
                l(2) =   0
     Q(r) pseudized with 0 coefficients 


     PseudoPot. # 2 for Al read from file:
     /scratch/antwerpen/209/vsc20922/pseudos/Al.pbe-n-kjpaw_psl.1.0.0.UPF
     MD5 check sum: cfc449ca30b5f3223ec38ddd88ac046d
     Pseudo is Projector augmented-wave + core cor, Zval =  3.0
     Generated using "atomic" code by A. Dal Corso  v.5.1
     Shape of augmentation charge: PSQ
     Using radial grid of 1135 points,  6 beta functions with: 
                l(1) =   0
                l(2) =   0
                l(3) =   1
                l(4) =   1
                l(5) =   2
                l(6) =   2
     Q(r) pseudized with 0 coefficients 


     PseudoPot. # 3 for Na read from file:
     /scratch/antwerpen/209/vsc20922/pseudos/na_pbe_v1.5.uspp.F.UPF
     MD5 check sum: 44600605ef58000f06b90626533354dc
     Pseudo is Ultrasoft, Zval =  9.0
     Generated by new atomic code, or converted to UPF format
     Using radial grid of  819 points,  5 beta functions with: 
                l(1) =   0
                l(2) =   0
                l(3) =   1
                l(4) =   1
                l(5) =   2
     Q(r) pseudized with  8 coefficients,  rinner =    1.250   1.250   1.250
                                                       1.250   1.250

     atomic species   valence    mass     pseudopotential
        H              1.00     1.00750     H ( 1.00)
        Al             3.00    26.98100     Al( 1.00)
        Na             9.00    22.98900     Na( 1.00)

      4 Sym. Ops., with inversion, found ( 2 have fractional translation)



   Cartesian axes

     site n.     atom                  positions (alat units)
         1           Al  tau(   1) = (  -0.5062982   0.5253002   0.7299240  )
         2           Al  tau(   2) = (  -0.0000000   0.0000000  -0.0000000  )
         3           Na  tau(   3) = (   0.5067519   0.5253002   0.0001612  )
         4           Na  tau(   4) = (   0.0004538  -0.0000000   0.7300852  )
         5           Na  tau(   5) = (   0.0113452   0.4762334   1.0901848  )
         6           Na  tau(   6) = (  -0.5167358   1.0015336   1.0999096  )
         7           Na  tau(   7) = (  -0.0104376   0.5743670   0.3699856  )
         8           Na  tau(   8) = (   0.5176434   0.0490668   0.3602608  )
         9           H   tau(   9) = (   0.8508979   0.2799022   0.0922326  )
        10           H   tau(  10) = (  -0.3436922   0.8052025   0.6380138  )
        11           H   tau(  11) = (  -0.8499904   0.7706982   1.3679378  )
        12           H   tau(  12) = (   0.3445998   0.2453980   0.8221566  )
        13           H   tau(  13) = (  -0.2317051   0.3478382   0.6666600  )
        14           H   tau(  14) = (   0.7389108   0.8731385   0.0635863  )
        15           H   tau(  15) = (   0.2326126   0.7027622   0.7935104  )
        16           H   tau(  16) = (  -0.7380033   0.1774620   1.3965840  )
        17           H   tau(  17) = (   0.4061887   0.4754379   0.4148757  )
        18           H   tau(  18) = (   0.1010170   1.0007381   0.3153707  )
        19           H   tau(  19) = (  -0.4052812   0.5751625   1.0452947  )
        20           H   tau(  20) = (  -0.1001095   0.0498623   1.1447997  )

     number of k points=   100  Marzari-Vanderbilt smearing, width (Ry)=  0.0050

     Number of k-points >= 100: set verbosity='high' to print them.

     Dense  grid:   122977 G-vectors     FFT dimensions: (  54,  60,  96)

     Estimated max dynamical RAM per process >      63.50 MB

     Estimated total dynamical RAM >       1.74 GB

     Initial potential from superposition of free atoms

     starting charge      71.9576, renormalised to      72.0000
     Starting wfcs are   50 randomized atomic wfcs
     Checking if some PAW data can be deallocated... 

     total cpu time spent up to now is      907.9 secs

     Self-consistent Calculation

     iteration #  1     ecut=    70.00 Ry     beta= 0.70
     Davidson diagonalization with overlap
     c_bands:  3 eigenvalues not converged
     c_bands:  4 eigenvalues not converged
     c_bands:  2 eigenvalues not converged
     c_bands:  1 eigenvalues not converged
     c_bands:  3 eigenvalues not converged
     c_bands:  4 eigenvalues not converged
     c_bands:  3 eigenvalues not converged
     c_bands:  1 eigenvalues not converged
     c_bands:  2 eigenvalues not converged
     c_bands:  2 eigenvalues not converged
     c_bands:  2 eigenvalues not converged
     c_bands:  2 eigenvalues not converged
     c_bands:  1 eigenvalues not converged
     c_bands:  2 eigenvalues not converged
     c_bands:  3 eigenvalues not converged
     c_bands:  1 eigenvalues not converged
     c_bands:  2 eigenvalues not converged
     c_bands:  1 eigenvalues not converged
     c_bands:  1 eigenvalues not converged
     c_bands:  2 eigenvalues not converged
     c_bands:  2 eigenvalues not converged
     c_bands:  4 eigenvalues not converged
     c_bands:  3 eigenvalues not converged
     c_bands:  3 eigenvalues not converged
     c_bands:  2 eigenvalues not converged
     c_bands:  2 eigenvalues not converged
     c_bands:  2 eigenvalues not converged
     c_bands:  2 eigenvalues not converged
     c_bands:  4 eigenvalues not converged
     c_bands:  2 eigenvalues not converged
     c_bands:  3 eigenvalues not converged
     c_bands:  1 eigenvalues not converged
     c_bands:  2 eigenvalues not converged
     c_bands:  2 eigenvalues not converged
     c_bands:  2 eigenvalues not converged
     c_bands:  1 eigenvalues not converged
     c_bands:  3 eigenvalues not converged
     c_bands:  2 eigenvalues not converged
     c_bands:  2 eigenvalues not converged
     c_bands:  2 eigenvalues not converged
     c_bands:  1 eigenvalues not converged
     c_bands:  3 eigenvalues not converged
     c_bands:  2 eigenvalues not converged
     c_bands:  2 eigenvalues not converged
     c_bands:  3 eigenvalues not converged
     c_bands:  1 eigenvalues not converged
     c_bands:  1 eigenvalues not converged
     c_bands:  4 eigenvalues not converged
     c_bands:  3 eigenvalues not converged
     c_bands:  1 eigenvalues not converged
     c_bands:  1 eigenvalues not converged
     c_bands:  2 eigenvalues not converged
     c_bands:  2 eigenvalues not converged
     c_bands:  2 eigenvalues not converged
     c_bands:  2 eigenvalues not converged
     c_bands:  2 eigenvalues not converged
     c_bands:  2 eigenvalues not converged
     c_bands:  2 eigenvalues not converged
     c_bands:  2 eigenvalues not converged
     c_bands:  2 eigenvalues not converged
     c_bands:  2 eigenvalues not converged
     c_bands:  3 eigenvalues not converged
     c_bands:  2 eigenvalues not converged
     c_bands:  1 eigenvalues not converged
     c_bands:  2 eigenvalues not converged
     c_bands:  1 eigenvalues not converged
     c_bands:  1 eigenvalues not converged
     c_bands:  2 eigenvalues not converged
     c_bands:  3 eigenvalues not converged
     c_bands:  2 eigenvalues not converged
     c_bands:  1 eigenvalues not converged
     c_bands:  2 eigenvalues not converged
     c_bands:  3 eigenvalues not converged
     c_bands:  3 eigenvalues not converged
     c_bands:  2 eigenvalues not converged
     c_bands:  3 eigenvalues not converged
     c_bands:  3 eigenvalues not converged
     c_bands:  2 eigenvalues not converged
     c_bands:  2 eigenvalues not converged
     c_bands:  3 eigenvalues not converged
     c_bands:  2 eigenvalues not converged
     c_bands:  2 eigenvalues not converged
     c_bands:  1 eigenvalues not converged
     c_bands:  2 eigenvalues not converged
     c_bands:  2 eigenvalues not converged
     c_bands:  2 eigenvalues not converged
     c_bands:  2 eigenvalues not converged
     c_bands:  1 eigenvalues not converged
     c_bands:  2 eigenvalues not converged
     c_bands:  2 eigenvalues not converged
     c_bands:  2 eigenvalues not converged
     c_bands:  2 eigenvalues not converged
     c_bands:  2 eigenvalues not converged
     c_bands:  2 eigenvalues not converged
     c_bands:  2 eigenvalues not converged
     ethr =  1.00E-06,  avg # of iterations = 20.0

     total cpu time spent up to now is      933.8 secs

     total energy              =    -665.22214330 Ry
     estimated scf accuracy    <       0.96694141 Ry

     iteration #  2     ecut=    70.00 Ry     beta= 0.70
     Davidson diagonalization with overlap
     ethr =  1.34E-03,  avg # of iterations =  2.0

     total cpu time spent up to now is      941.0 secs

     total energy              =    -665.33123103 Ry
     estimated scf accuracy    <       0.02834501 Ry

     iteration #  3     ecut=    70.00 Ry     beta= 0.70
     Davidson diagonalization with overlap
     ethr =  3.94E-05,  avg # of iterations =  3.0

     total cpu time spent up to now is      950.0 secs

     total energy              =    -665.33935436 Ry
     estimated scf accuracy    <       0.00316262 Ry

     iteration #  4     ecut=    70.00 Ry     beta= 0.70
     Davidson diagonalization with overlap
     ethr =  4.39E-06,  avg # of iterations =  7.0

     total cpu time spent up to now is      959.2 secs

     total energy              =    -665.34004741 Ry
     estimated scf accuracy    <       0.00009200 Ry

     iteration #  5     ecut=    70.00 Ry     beta= 0.70
     Davidson diagonalization with overlap
     ethr =  1.28E-07,  avg # of iterations =  3.9

     total cpu time spent up to now is      968.5 secs

     total energy              =    -665.34007410 Ry
     estimated scf accuracy    <       0.00001466 Ry

     iteration #  6     ecut=    70.00 Ry     beta= 0.70
     Davidson diagonalization with overlap
     ethr =  2.04E-08,  avg # of iterations =  2.0

     total cpu time spent up to now is      975.7 secs

     total energy              =    -665.34007637 Ry
     estimated scf accuracy    <       0.00000026 Ry

     iteration #  7     ecut=    70.00 Ry     beta= 0.70
     Davidson diagonalization with overlap
     ethr =  3.54E-10,  avg # of iterations =  5.0

     total cpu time spent up to now is      985.7 secs

     total energy              =    -665.34007650 Ry
     estimated scf accuracy    <       0.00000027 Ry

     iteration #  8     ecut=    70.00 Ry     beta= 0.70
     Davidson diagonalization with overlap
     ethr =  3.54E-10,  avg # of iterations =  2.8

     total cpu time spent up to now is      993.2 secs

     total energy              =    -665.34007656 Ry
     estimated scf accuracy    <          7.8E-09 Ry

     iteration #  9     ecut=    70.00 Ry     beta= 0.70
     Davidson diagonalization with overlap
     ethr =  1.09E-11,  avg # of iterations =  3.7

     total cpu time spent up to now is     1001.1 secs

     total energy              =    -665.34007656 Ry
     estimated scf accuracy    <          3.7E-09 Ry

     iteration # 10     ecut=    70.00 Ry     beta= 0.70
     Davidson diagonalization with overlap
     ethr =  5.16E-12,  avg # of iterations =  2.5

     total cpu time spent up to now is     1008.4 secs

     End of self-consistent calculation

     Number of k-points >= 100: set verbosity='high' to print the bands.

     the Fermi energy is     3.1979 ev

!    total energy              =    -665.34007656 Ry
     estimated scf accuracy    <          1.2E-11 Ry
     smearing contrib. (-TS)   =       0.00000000 Ry
     internal energy E=F+TS    =    -665.34007656 Ry

     The total energy is F=E-TS. E is the sum of the following terms:
     one-electron contribution =    -487.84925393 Ry
     hartree contribution      =     256.96421780 Ry
     xc contribution           =    -100.09887682 Ry
     ewald contribution        =    -265.02690179 Ry
     one-center paw contrib.   =     -69.32926182 Ry

     convergence has been achieved in  10 iterations

     Forces acting on atoms (cartesian axes, Ry/au):

     atom    1 type  2   force =     0.00000000    0.00000000   -0.00000000
     atom    2 type  2   force =     0.00000000    0.00000000    0.00000000
     atom    3 type  3   force =     0.00000000    0.00000000    0.00000000
     atom    4 type  3   force =     0.00000000    0.00000000    0.00000000
     atom    5 type  3   force =    -0.00017256    0.00025021    0.00000558
     atom    6 type  3   force =     0.00017256    0.00025021   -0.00000558
     atom    7 type  3   force =     0.00017256   -0.00025021   -0.00000558
     atom    8 type  3   force =    -0.00017256   -0.00025021    0.00000558
     atom    9 type  1   force =     0.00005259    0.00008454    0.00012874
     atom   10 type  1   force =    -0.00005259    0.00008454   -0.00012874
     atom   11 type  1   force =    -0.00005259   -0.00008454   -0.00012874
     atom   12 type  1   force =     0.00005259   -0.00008454    0.00012874
     atom   13 type  1   force =     0.00006843   -0.00005020   -0.00007179
     atom   14 type  1   force =    -0.00006843   -0.00005020    0.00007179
     atom   15 type  1   force =    -0.00006843    0.00005020    0.00007179
     atom   16 type  1   force =     0.00006843    0.00005020   -0.00007179
     atom   17 type  1   force =    -0.00001965   -0.00005802    0.00006994
     atom   18 type  1   force =     0.00001965   -0.00005802   -0.00006994
     atom   19 type  1   force =     0.00001965    0.00005802   -0.00006994
     atom   20 type  1   force =    -0.00001965    0.00005802    0.00006994

     Total force =     0.000748     Total SCF correction =     0.000003


     Computing stress (Cartesian axis) and pressure

          total   stress  (Ry/bohr**3)                   (kbar)     P=       -0.14
  -0.00000042   0.00000000   0.00000035           -0.06        0.00        0.05
   0.00000000  -0.00000222   0.00000000            0.00       -0.33        0.00
   0.00000035   0.00000000  -0.00000021            0.05        0.00       -0.03


     Writing all to output data dir ./Na3AlH6.save/
 
     init_run     :      6.50s CPU      6.72s WALL (       2 calls)
     electrons    :    929.88s CPU    956.87s WALL (      10 calls)
     update_pot   :      5.22s CPU      5.27s WALL (       8 calls)
     forces       :     12.78s CPU     13.01s WALL (      10 calls)
     stress       :     27.14s CPU     27.37s WALL (      10 calls)

     Called by init_run:
     wfcinit      :      5.25s CPU      5.39s WALL (       2 calls)
     potinit      :      0.53s CPU      0.54s WALL (       2 calls)
     hinit0       :      0.58s CPU      0.59s WALL (       2 calls)

     Called by electrons:
     c_bands      :    802.11s CPU    824.33s WALL (     115 calls)
     sum_band     :    114.03s CPU    117.25s WALL (     115 calls)
     v_of_rho     :      0.92s CPU      0.93s WALL (     124 calls)
     newd         :      2.89s CPU      3.37s WALL (     124 calls)
     PAW_pot      :     11.41s CPU     11.49s WALL (     132 calls)
     mix_rho      :      0.21s CPU      0.22s WALL (     115 calls)

     Called by c_bands:
     init_us_2    :     11.75s CPU     12.45s WALL (   26000 calls)
     init_us_2:cp :     11.64s CPU     12.36s WALL (   26000 calls)
     cegterg      :    749.23s CPU    764.20s WALL (   11500 calls)

     Called by *egterg:
     cdiaghg      :     86.32s CPU     86.97s WALL (   41646 calls)
     h_psi        :    542.11s CPU    555.42s WALL (   42746 calls)
     s_psi        :     29.04s CPU     29.35s WALL (   42746 calls)
     g_psi        :      3.77s CPU      3.82s WALL (   31046 calls)

     Called by h_psi:
     h_psi:calbec :     37.17s CPU     37.84s WALL (   42746 calls)
     vloc_psi     :    471.01s CPU    483.36s WALL (   42746 calls)
     add_vuspsi   :     30.31s CPU     30.57s WALL (   42746 calls)

     General routines
     calbec       :     54.94s CPU     55.92s WALL (   60046 calls)
     fft          :      0.60s CPU      0.61s WALL (    1623 calls)
     ffts         :      0.04s CPU      0.04s WALL (     115 calls)
     fftw         :    501.93s CPU    514.64s WALL ( 3184538 calls)
 
     Parallel routines
 
     PWSCF        :  16m25.18s CPU  17m 3.21s WALL

 
   This run was terminated on:  15:53:47   3Dec2023            

=------------------------------------------------------------------------------=
   JOB DONE.
=------------------------------------------------------------------------------=
