
     Program PWSCF v.7.1 starts on  3Dec2023 at 15:53:48 

     This program is part of the open-source Quantum ESPRESSO suite
     for quantum simulation of materials; please cite
         "P. Giannozzi et al., J. Phys.:Condens. Matter 21 395502 (2009);
         "P. Giannozzi et al., J. Phys.:Condens. Matter 29 465901 (2017);
         "P. Giannozzi et al., J. Chem. Phys. 152 154105 (2020);
          URL http://www.quantum-espresso.org", 
     in publications or presentations arising from this work. More details at
     http://www.quantum-espresso.org/quote

     Parallel version (MPI & OpenMP), running on      28 processor cores
     Number of MPI processes:                28
     Threads/MPI process:                     1

     MPI processes distributed on     1 nodes
     122408 MiB available memory on the printing compute node when the environment starts
 
     Reading input from Na5Al3H14_opt.in

     Current dimensions of program PWSCF are:
     Max number of different atomic species (ntypx) = 10
     Max number of k-points (npk) =  40000
     Max angular momentum in pseudopotentials (lmaxx) =  4
     file Al.pbe-n-kjpaw_psl.1.0.0.UPF: wavefunction(s)  3S 3P renormalized

     IMPORTANT: XC functional enforced from input :
     Exchange-correlation= PBE
                           (   1   4   3   4   0   0   0)
     Any further DFT definition will be discarded
     Please, verify this is what you really want

     Message from routine setup:
     using ibrav=0 with symmetry is DISCOURAGED, use correct ibrav instead
 
     R & G space division:  proc/nbgrp/npool/nimage =      28
     Subspace diagonalization in iterative solution of the eigenvalue problem:
     a serial algorithm will be used

 
     Parallelization info
     --------------------
     sticks:   dense  smooth     PW     G-vecs:    dense   smooth      PW
     Min         126     126     33                 8664     8664    1211
     Max         127     127     34                 8669     8669    1220
     Sum        3545    3545    949               242663   242663   34121
 
     Using Slab Decomposition
 


     bravais-lattice index     =            0
     lattice parameter (alat)  =      12.6114  a.u.
     unit-cell volume          =    3067.3055 (a.u.)^3
     number of atoms/cell      =           44
     number of atomic types    =            3
     number of electrons       =       136.00
     number of Kohn-Sham states=           82
     kinetic-energy cutoff     =      70.0000  Ry
     charge density cutoff     =     280.0000  Ry
     scf convergence threshold =      1.0E-08
     mixing beta               =       0.7000
     number of iterations used =            8  plain     mixing
     energy convergence thresh.=      1.0E-04
     force convergence thresh. =      1.0E-03
     press convergence thresh. =      5.0E-01
     Exchange-correlation= PBE
                           (   1   4   3   4   0   0   0)
     nstep                     =           50


     celldm(1)=  12.611352  celldm(2)=   0.000000  celldm(3)=   0.000000
     celldm(4)=   0.000000  celldm(5)=   0.000000  celldm(6)=   0.000000

     crystal axes: (cart. coord. in units of alat)
               a(1) = (   1.000000   0.000000   0.000000 )  
               a(2) = (   0.000000   1.000000   0.000000 )  
               a(3) = (   0.000000   0.000000   1.529228 )  

     reciprocal axes: (cart. coord. in units 2 pi/alat)
               b(1) = (  1.000000  0.000000  0.000000 )  
               b(2) = (  0.000000  1.000000  0.000000 )  
               b(3) = (  0.000000  0.000000  0.653925 )  


     PseudoPot. # 1 for H  read from file:
     /scratch/antwerpen/209/vsc20922/pseudos/H.pbe-rrkjus_psl.1.0.0.UPF
     MD5 check sum: f52b6d4d1c606e5624b1dc7b2218f220
     Pseudo is Ultrasoft, Zval =  1.0
     Generated using "atomic" code by A. Dal Corso  v.5.1
     Using radial grid of  929 points,  2 beta functions with: 
                l(1) =   0
                l(2) =   0
     Q(r) pseudized with 0 coefficients 


     PseudoPot. # 2 for Al read from file:
     /scratch/antwerpen/209/vsc20922/pseudos/Al.pbe-n-kjpaw_psl.1.0.0.UPF
     MD5 check sum: cfc449ca30b5f3223ec38ddd88ac046d
     Pseudo is Projector augmented-wave + core cor, Zval =  3.0
     Generated using "atomic" code by A. Dal Corso  v.5.1
     Shape of augmentation charge: PSQ
     Using radial grid of 1135 points,  6 beta functions with: 
                l(1) =   0
                l(2) =   0
                l(3) =   1
                l(4) =   1
                l(5) =   2
                l(6) =   2
     Q(r) pseudized with 0 coefficients 


     PseudoPot. # 3 for Na read from file:
     /scratch/antwerpen/209/vsc20922/pseudos/na_pbe_v1.5.uspp.F.UPF
     MD5 check sum: 44600605ef58000f06b90626533354dc
     Pseudo is Ultrasoft, Zval =  9.0
     Generated by new atomic code, or converted to UPF format
     Using radial grid of  819 points,  5 beta functions with: 
                l(1) =   0
                l(2) =   0
                l(3) =   1
                l(4) =   1
                l(5) =   2
     Q(r) pseudized with  8 coefficients,  rinner =    1.250   1.250   1.250
                                                       1.250   1.250

     atomic species   valence    mass     pseudopotential
        H              1.00     1.00750     H ( 1.00)
        Al             3.00    26.98100     Al( 1.00)
        Na             9.00    22.98900     Na( 1.00)

     16 Sym. Ops., with inversion, found ( 8 have fractional translation)



   Cartesian axes

     site n.     atom                  positions (alat units)
         1           Al  tau(   1) = (   0.0000000   0.0000000   0.0000000  )
         2           Al  tau(   2) = (   0.5000000   0.5000000   0.7646138  )
         3           Al  tau(   3) = (   0.0000000   0.5000000   0.0000000  )
         4           Al  tau(   4) = (   0.5000000   0.0000000   0.0000000  )
         5           Al  tau(   5) = (   0.5000000   0.0000000   0.7646138  )
         6           Al  tau(   6) = (   0.0000000   0.5000000   0.7646138  )
         7           Na  tau(   7) = (   0.0000000   0.0000000   0.7646138  )
         8           Na  tau(   8) = (   0.5000000   0.5000000   0.0000000  )
         9           Na  tau(   9) = (   0.2873471   0.7873471   0.3823069  )
        10           Na  tau(  10) = (   0.2126529   0.2873471   0.3823069  )
        11           Na  tau(  11) = (   0.7873471   0.7126529   0.3823069  )
        12           Na  tau(  12) = (   0.7126529   0.2126529   0.3823069  )
        13           Na  tau(  13) = (   0.2873471   0.7873471   1.1469206  )
        14           Na  tau(  14) = (   0.2126529   0.2873471   1.1469206  )
        15           Na  tau(  15) = (   0.7873471   0.7126529   1.1469206  )
        16           Na  tau(  16) = (   0.7126529   0.2126529   1.1469206  )
        17           H   tau(  17) = (   0.5437980   0.8200507   0.1797052  )
        18           H   tau(  18) = (   0.4562020   0.1799493   0.1797052  )
        19           H   tau(  19) = (   0.3200507   0.0437980   0.5849086  )
        20           H   tau(  20) = (   0.8200507   0.4562020   0.1797052  )
        21           H   tau(  21) = (   0.1799493   0.5437980   0.1797052  )
        22           H   tau(  22) = (   0.9562020   0.3200507   0.5849086  )
        23           H   tau(  23) = (   0.0437980   0.6799493   0.5849086  )
        24           H   tau(  24) = (   0.6799493   0.9562020   0.5849086  )
        25           H   tau(  25) = (   0.4562020   0.1799493   1.3495223  )
        26           H   tau(  26) = (   0.5437980   0.8200507   1.3495223  )
        27           H   tau(  27) = (   0.6799493   0.9562020   0.9443189  )
        28           H   tau(  28) = (   0.1799493   0.5437980   1.3495223  )
        29           H   tau(  29) = (   0.8200507   0.4562020   1.3495223  )
        30           H   tau(  30) = (   0.0437980   0.6799493   0.9443189  )
        31           H   tau(  31) = (   0.9562020   0.3200507   0.9443189  )
        32           H   tau(  32) = (   0.3200507   0.0437980   0.9443189  )
        33           H   tau(  33) = (   0.0000000   0.0000000   0.2607407  )
        34           H   tau(  34) = (   0.5000000   0.5000000   0.5038731  )
        35           H   tau(  35) = (   0.0000000   0.0000000   1.2684868  )
        36           H   tau(  36) = (   0.5000000   0.5000000   1.0253544  )
        37           H   tau(  37) = (   0.7523734   0.0751217   0.0000000  )
        38           H   tau(  38) = (   0.9248783   0.7523734   0.0000000  )
        39           H   tau(  39) = (   0.0751217   0.2476266   0.0000000  )
        40           H   tau(  40) = (   0.2523734   0.4248783   0.7646138  )
        41           H   tau(  41) = (   0.7476266   0.5751217   0.7646138  )
        42           H   tau(  42) = (   0.2476266   0.9248783   0.0000000  )
        43           H   tau(  43) = (   0.5751217   0.2523734   0.7646138  )
        44           H   tau(  44) = (   0.4248783   0.7476266   0.7646138  )

     number of k points=    40  Marzari-Vanderbilt smearing, width (Ry)=  0.0050
                       cart. coord. in units 2pi/alat
        k(    1) = (   0.0000000   0.0000000   0.0000000), wk =   0.0058309
        k(    2) = (   0.0000000   0.0000000   0.0934178), wk =   0.0116618
        k(    3) = (   0.0000000   0.0000000   0.1868357), wk =   0.0116618
        k(    4) = (   0.0000000   0.0000000   0.2802535), wk =   0.0116618
        k(    5) = (   0.0000000   0.1428571   0.0000000), wk =   0.0233236
        k(    6) = (   0.0000000   0.1428571   0.0934178), wk =   0.0466472
        k(    7) = (   0.0000000   0.1428571   0.1868357), wk =   0.0466472
        k(    8) = (   0.0000000   0.1428571   0.2802535), wk =   0.0466472
        k(    9) = (   0.0000000   0.2857143   0.0000000), wk =   0.0233236
        k(   10) = (   0.0000000   0.2857143   0.0934178), wk =   0.0466472
        k(   11) = (   0.0000000   0.2857143   0.1868357), wk =   0.0466472
        k(   12) = (   0.0000000   0.2857143   0.2802535), wk =   0.0466472
        k(   13) = (   0.0000000   0.4285714   0.0000000), wk =   0.0233236
        k(   14) = (   0.0000000   0.4285714   0.0934178), wk =   0.0466472
        k(   15) = (   0.0000000   0.4285714   0.1868357), wk =   0.0466472
        k(   16) = (   0.0000000   0.4285714   0.2802535), wk =   0.0466472
        k(   17) = (   0.1428571   0.1428571   0.0000000), wk =   0.0233236
        k(   18) = (   0.1428571   0.1428571   0.0934178), wk =   0.0466472
        k(   19) = (   0.1428571   0.1428571   0.1868357), wk =   0.0466472
        k(   20) = (   0.1428571   0.1428571   0.2802535), wk =   0.0466472
        k(   21) = (   0.1428571   0.2857143   0.0000000), wk =   0.0466472
        k(   22) = (   0.1428571   0.2857143   0.0934178), wk =   0.0932945
        k(   23) = (   0.1428571   0.2857143   0.1868357), wk =   0.0932945
        k(   24) = (   0.1428571   0.2857143   0.2802535), wk =   0.0932945
        k(   25) = (   0.1428571   0.4285714   0.0000000), wk =   0.0466472
        k(   26) = (   0.1428571   0.4285714   0.0934178), wk =   0.0932945
        k(   27) = (   0.1428571   0.4285714   0.1868357), wk =   0.0932945
        k(   28) = (   0.1428571   0.4285714   0.2802535), wk =   0.0932945
        k(   29) = (   0.2857143   0.2857143   0.0000000), wk =   0.0233236
        k(   30) = (   0.2857143   0.2857143   0.0934178), wk =   0.0466472
        k(   31) = (   0.2857143   0.2857143   0.1868357), wk =   0.0466472
        k(   32) = (   0.2857143   0.2857143   0.2802535), wk =   0.0466472
        k(   33) = (   0.2857143   0.4285714   0.0000000), wk =   0.0466472
        k(   34) = (   0.2857143   0.4285714   0.0934178), wk =   0.0932945
        k(   35) = (   0.2857143   0.4285714   0.1868357), wk =   0.0932945
        k(   36) = (   0.2857143   0.4285714   0.2802535), wk =   0.0932945
        k(   37) = (   0.4285714   0.4285714   0.0000000), wk =   0.0233236
        k(   38) = (   0.4285714   0.4285714   0.0934178), wk =   0.0466472
        k(   39) = (   0.4285714   0.4285714   0.1868357), wk =   0.0466472
        k(   40) = (   0.4285714   0.4285714   0.2802535), wk =   0.0466472

     Dense  grid:   242663 G-vectors     FFT dimensions: (  72,  72, 108)

     Estimated max dynamical RAM per process >     109.65 MB

     Estimated total dynamical RAM >       3.00 GB

     Initial potential from superposition of free atoms

     starting charge     135.9231, renormalised to     136.0000
     Starting wfcs are  102 randomized atomic wfcs
     Checking if some PAW data can be deallocated... 

     total cpu time spent up to now is        6.2 secs

     Self-consistent Calculation

     iteration #  1     ecut=    70.00 Ry     beta= 0.70
     Davidson diagonalization with overlap
     ethr =  1.00E-02,  avg # of iterations =  5.8

     total cpu time spent up to now is       20.9 secs

     total energy              =   -1223.45158481 Ry
     estimated scf accuracy    <       1.96850726 Ry

     iteration #  2     ecut=    70.00 Ry     beta= 0.70
     Davidson diagonalization with overlap
     ethr =  1.45E-03,  avg # of iterations =  2.0

     total cpu time spent up to now is       32.2 secs

     total energy              =   -1223.62505375 Ry
     estimated scf accuracy    <       0.04212866 Ry

     iteration #  3     ecut=    70.00 Ry     beta= 0.70
     Davidson diagonalization with overlap
     ethr =  3.10E-05,  avg # of iterations = 12.0

     total cpu time spent up to now is       54.9 secs

     total energy              =   -1223.63783928 Ry
     estimated scf accuracy    <       0.00408022 Ry

     iteration #  4     ecut=    70.00 Ry     beta= 0.70
     Davidson diagonalization with overlap
     ethr =  3.00E-06,  avg # of iterations =  4.4

     total cpu time spent up to now is       68.3 secs

     total energy              =   -1223.63883553 Ry
     estimated scf accuracy    <       0.00026830 Ry

     iteration #  5     ecut=    70.00 Ry     beta= 0.70
     Davidson diagonalization with overlap
     ethr =  1.97E-07,  avg # of iterations =  2.8

     total cpu time spent up to now is       80.2 secs

     total energy              =   -1223.63889433 Ry
     estimated scf accuracy    <       0.00001986 Ry

     iteration #  6     ecut=    70.00 Ry     beta= 0.70
     Davidson diagonalization with overlap
     ethr =  1.46E-08,  avg # of iterations =  3.5

     total cpu time spent up to now is       92.5 secs

     total energy              =   -1223.63889780 Ry
     estimated scf accuracy    <       0.00000316 Ry

     iteration #  7     ecut=    70.00 Ry     beta= 0.70
     Davidson diagonalization with overlap
     ethr =  2.32E-09,  avg # of iterations =  2.0

     total cpu time spent up to now is      103.9 secs

     total energy              =   -1223.63889821 Ry
     estimated scf accuracy    <       0.00000008 Ry

     iteration #  8     ecut=    70.00 Ry     beta= 0.70
     Davidson diagonalization with overlap
     ethr =  6.05E-11,  avg # of iterations =  4.7

     total cpu time spent up to now is      119.6 secs

     total energy              =   -1223.63889825 Ry
     estimated scf accuracy    <       0.00000004 Ry

     iteration #  9     ecut=    70.00 Ry     beta= 0.70
     Davidson diagonalization with overlap
     ethr =  2.94E-11,  avg # of iterations =  2.0

     total cpu time spent up to now is      130.8 secs

     End of self-consistent calculation

          k = 0.0000 0.0000 0.0000 ( 30351 PWs)   bands (ev):

   -49.2093 -49.2093 -48.9018 -48.9018 -48.8990 -48.8990 -48.8990 -48.8990
   -48.8965 -48.8965 -21.1568 -21.1542 -21.1202 -21.1202 -21.1188 -21.1188
   -20.8751 -20.8739 -20.8609 -20.8609 -20.8608 -20.8608 -20.8607 -20.8604
   -20.8269 -20.8257 -20.8253 -20.8237 -20.8218 -20.8218 -20.8218 -20.8218
   -20.8028 -20.8028 -20.8026 -20.8026 -20.8011 -20.8007 -20.7996 -20.7995
    -6.1149  -5.8057  -4.1024  -3.8515  -2.7681  -2.6266  -2.6174  -2.5038
    -2.5038  -2.3281  -2.3281  -1.1234  -1.0140  -0.8322  -0.8322  -0.7335
    -0.6552  -0.6552  -0.2534  -0.1153   0.3222   0.7123   0.7123   0.9209
     1.1659   1.3815   1.3815   1.6211   4.4992   5.3373   6.3491   6.3491
     6.4029   6.5169   6.5852   7.0337   7.0337   7.0469   7.1639   7.2422
     7.2423   7.5328

          k = 0.0000 0.0000 0.0934 ( 30351 PWs)   bands (ev):

   -49.2093 -49.2093 -48.9018 -48.9018 -48.8990 -48.8990 -48.8990 -48.8990
   -48.8965 -48.8965 -21.1566 -21.1543 -21.1201 -21.1201 -21.1189 -21.1189
   -20.8751 -20.8739 -20.8609 -20.8609 -20.8608 -20.8608 -20.8607 -20.8604
   -20.8267 -20.8257 -20.8253 -20.8239 -20.8218 -20.8218 -20.8218 -20.8218
   -20.8028 -20.8028 -20.8026 -20.8026 -20.8011 -20.8007 -20.7996 -20.7995
    -6.1017  -5.8237  -4.0916  -3.8660  -2.7877  -2.6412  -2.5321  -2.4956
    -2.4956  -2.3372  -2.3372  -1.2032  -0.9744  -0.8267  -0.8267  -0.7578
    -0.6688  -0.6688  -0.2855  -0.1703   0.4490   0.7506   0.7506   0.9423
     1.1583   1.3522   1.3522   1.5837   4.5373   5.3469   6.3219   6.3219
     6.4295   6.4487   6.5467   6.8184   6.8184   7.0169   7.2520   7.5095
     7.5095   7.5896

          k = 0.0000 0.0000 0.1868 ( 30359 PWs)   bands (ev):

   -49.2093 -49.2093 -48.9018 -48.9018 -48.8990 -48.8990 -48.8990 -48.8990
   -48.8965 -48.8965 -21.1563 -21.1547 -21.1199 -21.1199 -21.1191 -21.1191
   -20.8749 -20.8741 -20.8609 -20.8609 -20.8608 -20.8608 -20.8606 -20.8604
   -20.8263 -20.8256 -20.8253 -20.8243 -20.8218 -20.8218 -20.8218 -20.8218
   -20.8028 -20.8028 -20.8027 -20.8027 -20.8010 -20.8008 -20.7996 -20.7995
    -6.0638  -5.8723  -4.0607  -3.9052  -2.7939  -2.6792  -2.4722  -2.4722
    -2.3626  -2.3626  -2.3376  -1.4477  -0.8623  -0.8098  -0.8098  -0.7251
    -0.7029  -0.7029  -0.3732  -0.3137   0.7215   0.8539   0.8539   0.9926
     1.1356   1.2683   1.2683   1.4685   4.6565   5.3012   6.2788   6.2843
     6.2843   6.5642   6.5807   6.5807   6.5970   6.9384   7.3155   7.6599
     7.8456   7.8458

          k = 0.0000 0.0000 0.2803 ( 30336 PWs)   bands (ev):

   -49.2093 -49.2093 -48.9018 -48.9018 -48.8990 -48.8990 -48.8990 -48.8990
   -48.8965 -48.8965 -21.1558 -21.1552 -21.1196 -21.1196 -21.1193 -21.1193
   -20.8746 -20.8743 -20.8609 -20.8609 -20.8608 -20.8608 -20.8606 -20.8605
   -20.8257 -20.8255 -20.8254 -20.8250 -20.8218 -20.8218 -20.8218 -20.8218
   -20.8028 -20.8028 -20.8027 -20.8027 -20.8009 -20.8008 -20.7996 -20.7996
    -6.0063  -5.9382  -4.0139  -3.9586  -2.7703  -2.7274  -2.4378  -2.4378
    -2.3987  -2.3987  -2.0732  -1.7638  -0.7817  -0.7817  -0.7442  -0.7442
    -0.6962  -0.6229  -0.5024  -0.4949   0.9948   0.9948   1.0162   1.0491
     1.0986   1.1421   1.1421   1.2750   4.8573   5.1056   6.3019   6.3019
     6.3690   6.4023   6.4023   6.5502   6.7021   6.8301   7.3184   7.3850
     8.0694   8.0694

          k = 0.0000 0.1429 0.0000 ( 30333 PWs)   bands (ev):

   -49.2093 -49.2093 -48.9017 -48.9017 -48.8992 -48.8992 -48.8989 -48.8989
   -48.8966 -48.8966 -21.1566 -21.1543 -21.1201 -21.1201 -21.1189 -21.1189
   -20.8739 -20.8727 -20.8615 -20.8614 -20.8606 -20.8605 -20.8565 -20.8564
   -20.8267 -20.8263 -20.8263 -20.8233 -20.8226 -20.8225 -20.8213 -20.8212
   -20.8054 -20.8053 -20.8027 -20.8025 -20.8023 -20.8020 -20.8001 -20.8000
    -6.0623  -5.7611  -4.2329  -3.9773  -3.0728  -2.9451  -2.5650  -2.4688
    -2.3102  -1.9732  -1.8257  -1.1867  -1.0403  -0.9092  -0.8801  -0.7350
    -0.7287  -0.7145  -0.3039  -0.1568   0.3892   0.7441   0.8015   0.9128
     1.1484   1.3733   1.3790   1.5732   4.6601   5.4692   6.3118   6.3361
     6.3598   6.4222   6.7072   6.8010   6.9656   7.1218   7.1328   7.2437
     7.3041   7.5064

          k = 0.0000 0.1429 0.0934 ( 30333 PWs)   bands (ev):

   -49.2093 -49.2093 -48.9017 -48.9017 -48.8992 -48.8992 -48.8989 -48.8989
   -48.8966 -48.8966 -21.1565 -21.1544 -21.1200 -21.1200 -21.1189 -21.1189
   -20.8738 -20.8728 -20.8615 -20.8614 -20.8606 -20.8605 -20.8565 -20.8565
   -20.8267 -20.8263 -20.8262 -20.8235 -20.8226 -20.8225 -20.8213 -20.8212
   -20.8053 -20.8053 -20.8027 -20.8025 -20.8022 -20.8020 -20.8001 -20.8000
    -6.0493  -5.7785  -4.2221  -3.9922  -3.0748  -2.9555  -2.5009  -2.4612
    -2.3181  -1.9646  -1.8368  -1.2327  -1.0412  -0.9055  -0.8586  -0.7698
    -0.7330  -0.7254  -0.3206  -0.2126   0.4889   0.7760   0.8427   0.9344
     1.1413   1.3245   1.3470   1.5672   4.6960   5.4793   6.2504   6.2826
     6.3817   6.4042   6.7102   6.7562   6.9065   6.9225   7.2102   7.2845
     7.4262   7.6626

          k = 0.0000 0.1429 0.1868 ( 30329 PWs)   bands (ev):

   -49.2093 -49.2093 -48.9017 -48.9017 -48.8992 -48.8992 -48.8989 -48.8989
   -48.8966 -48.8966 -21.1562 -21.1547 -21.1199 -21.1199 -21.1191 -21.1191
   -20.8737 -20.8730 -20.8615 -20.8614 -20.8606 -20.8606 -20.8565 -20.8565
   -20.8267 -20.8264 -20.8258 -20.8239 -20.8225 -20.8225 -20.8213 -20.8212
   -20.8053 -20.8053 -20.8027 -20.8025 -20.8022 -20.8020 -20.8001 -20.8000
    -6.0122  -5.8256  -4.1909  -4.0325  -3.0708  -2.9831  -2.4397  -2.3408
    -2.3287  -1.9381  -1.8687  -1.4385  -0.9661  -0.8946  -0.8440  -0.8041
    -0.7778  -0.6645  -0.3821  -0.3489   0.6882   0.8635   0.9658   0.9849
     1.1208   1.2018   1.2744   1.5122   4.8073   5.4261   6.1834   6.2485
     6.3004   6.4618   6.6726   6.6883   6.7874   6.7975   7.2457   7.3668
     7.5548   7.9591

          k = 0.0000 0.1429 0.2803 ( 30338 PWs)   bands (ev):

   -49.2093 -49.2093 -48.9017 -48.9017 -48.8992 -48.8992 -48.8989 -48.8989
   -48.8966 -48.8966 -21.1557 -21.1552 -21.1196 -21.1196 -21.1194 -21.1193
   -20.8734 -20.8732 -20.8614 -20.8614 -20.8606 -20.8606 -20.8565 -20.8565
   -20.8266 -20.8265 -20.8252 -20.8245 -20.8225 -20.8225 -20.8213 -20.8213
   -20.8053 -20.8053 -20.8026 -20.8026 -20.8021 -20.8021 -20.8001 -20.8000
    -5.9560  -5.8896  -4.1435  -4.0871  -3.0513  -3.0188  -2.4081  -2.3727
    -2.0956  -1.9282  -1.8838  -1.7136  -0.8962  -0.8807  -0.8324  -0.8247
    -0.7385  -0.5601  -0.5551  -0.4520   0.8741   0.9755   1.0287   1.0664
     1.0725   1.1170   1.2241   1.3824   4.9935   5.2277   6.2370   6.2386
     6.3203   6.4400   6.5700   6.5829   6.7860   6.8081   7.2177   7.2912
     7.7643   8.0645

          k = 0.0000 0.2857 0.0000 ( 30308 PWs)   bands (ev):

   -49.2093 -49.2093 -48.9013 -48.9013 -48.8996 -48.8996 -48.8986 -48.8986
   -48.8970 -48.8970 -21.1563 -21.1546 -21.1199 -21.1199 -21.1191 -21.1190
   -20.8713 -20.8704 -20.8631 -20.8630 -20.8555 -20.8553 -20.8490 -20.8489
   -20.8303 -20.8299 -20.8252 -20.8250 -20.8246 -20.8221 -20.8197 -20.8196
   -20.8113 -20.8111 -20.8069 -20.8067 -20.8023 -20.8021 -20.8005 -20.8004
    -5.9118  -5.6462  -4.5481  -4.3091  -3.2113  -3.1228  -2.4104  -2.3813
    -2.2594  -1.4843  -1.3096  -1.2962  -1.0858  -0.9559  -0.9035  -0.8019
    -0.7882  -0.6656  -0.4400  -0.2646   0.4620   0.7959   0.8247   0.9423
     1.0854   1.3599   1.3753   1.4393   5.0815   5.8036   6.1123   6.2664
     6.2752   6.3700   6.6537   6.6755   6.8415   7.1064   7.3046   7.3651
     7.4804   7.6683

          k = 0.0000 0.2857 0.0934 ( 30322 PWs)   bands (ev):

   -49.2093 -49.2093 -48.9013 -48.9013 -48.8996 -48.8996 -48.8986 -48.8986
   -48.8970 -48.8970 -21.1562 -21.1547 -21.1199 -21.1198 -21.1191 -21.1191
   -20.8713 -20.8704 -20.8631 -20.8630 -20.8555 -20.8554 -20.8490 -20.8489
   -20.8302 -20.8299 -20.8252 -20.8250 -20.8245 -20.8222 -20.8197 -20.8196
   -20.8113 -20.8111 -20.8069 -20.8067 -20.8022 -20.8021 -20.8005 -20.8004
    -5.8999  -5.6608  -4.5393  -4.3241  -3.2112  -3.1295  -2.3752  -2.3520
    -2.2649  -1.4670  -1.3082  -1.2963  -1.0835  -1.0525  -0.9010  -0.8174
    -0.7393  -0.6980  -0.4286  -0.3161   0.5183   0.8068   0.8502   0.9612
     1.0972   1.2592   1.3458   1.5161   5.1144   5.8221   6.1106   6.2368
     6.3182   6.3256   6.4948   6.6427   6.9396   7.1315   7.3116   7.3423
     7.5286   7.7844

          k = 0.0000 0.2857 0.1868 ( 30317 PWs)   bands (ev):

   -49.2093 -49.2093 -48.9013 -48.9013 -48.8996 -48.8996 -48.8986 -48.8986
   -48.8970 -48.8970 -21.1560 -21.1550 -21.1198 -21.1197 -21.1193 -21.1192
   -20.8711 -20.8706 -20.8631 -20.8630 -20.8555 -20.8554 -20.8490 -20.8489
   -20.8302 -20.8299 -20.8252 -20.8251 -20.8241 -20.8226 -20.8197 -20.8196
   -20.8112 -20.8111 -20.8069 -20.8068 -20.8022 -20.8021 -20.8005 -20.8004
    -5.8661  -5.7008  -4.5131  -4.3642  -3.2065  -3.1473  -2.3581  -2.2826
    -2.1882  -1.4926  -1.3029  -1.2979  -1.1486  -1.0765  -0.9449  -0.8780
    -0.7630  -0.5951  -0.4931  -0.3750   0.6288   0.8379   0.8979   0.9819
     1.1236   1.1360   1.3313   1.5494   5.2126   5.7603   6.1296   6.1656
     6.2859   6.4231   6.4244   6.5859   6.8970   7.1072   7.2647   7.3972
     7.6489   8.0171

          k = 0.0000 0.2857 0.2803 ( 30310 PWs)   bands (ev):

   -49.2093 -49.2093 -48.9013 -48.9013 -48.8996 -48.8996 -48.8986 -48.8986
   -48.8970 -48.8970 -21.1556 -21.1553 -21.1196 -21.1196 -21.1194 -21.1194
   -20.8709 -20.8707 -20.8631 -20.8631 -20.8555 -20.8554 -20.8490 -20.8490
   -20.8301 -20.8300 -20.8252 -20.8251 -20.8236 -20.8231 -20.8197 -20.8197
   -20.8112 -20.8111 -20.8068 -20.8068 -20.8022 -20.8022 -20.8004 -20.8004
    -5.8154  -5.7565  -4.4706  -4.4175  -3.1925  -3.1707  -2.3334  -2.3063
    -1.9540  -1.6917  -1.3052  -1.3018  -1.1011  -1.0699  -0.9742  -0.9396
    -0.7503  -0.6493  -0.4787  -0.4026   0.7370   0.8271   0.9358   0.9693
     1.0775   1.1227   1.4021   1.5037   5.3705   5.5704   6.0977   6.1076
     6.3872   6.4711   6.5738   6.5802   6.7657   6.9213   7.3312   7.3933
     7.7778   8.0193

          k = 0.0000 0.4286 0.0000 ( 30358 PWs)   bands (ev):

   -49.2093 -49.2093 -48.9007 -48.9007 -48.9001 -48.9001 -48.8981 -48.8981
   -48.8975 -48.8975 -21.1557 -21.1552 -21.1197 -21.1196 -21.1194 -21.1193
   -20.8685 -20.8678 -20.8656 -20.8653 -20.8466 -20.8463 -20.8397 -20.8395
   -20.8371 -20.8368 -20.8309 -20.8306 -20.8219 -20.8200 -20.8176 -20.8169
   -20.8168 -20.8166 -20.8125 -20.8124 -20.8016 -20.8016 -20.8010 -20.8010
    -5.7000  -5.5663  -4.7794  -4.6547  -3.2134  -3.1806  -2.2789  -2.2302
    -2.1627  -1.8410  -1.2726  -1.2372  -1.0715  -1.0352  -0.8058  -0.6222
    -0.5491  -0.4060  -0.3911  -0.2387   0.2522   0.4374   0.9199   0.9812
     1.1148   1.2674   1.3635   1.3723   5.5885   5.9329   6.0075   6.0954
     6.2570   6.3003   6.7072   6.8085   6.9622   7.3187   7.3865   7.5974
     7.6803   7.8456

          k = 0.0000 0.4286 0.0934 ( 30366 PWs)   bands (ev):

   -49.2093 -49.2093 -48.9007 -48.9007 -48.9001 -48.9001 -48.8981 -48.8981
   -48.8975 -48.8975 -21.1557 -21.1552 -21.1197 -21.1196 -21.1194 -21.1193
   -20.8684 -20.8679 -20.8656 -20.8653 -20.8465 -20.8463 -20.8397 -20.8395
   -20.8371 -20.8368 -20.8309 -20.8307 -20.8218 -20.8202 -20.8175 -20.8169
   -20.8168 -20.8166 -20.8125 -20.8124 -20.8016 -20.8016 -20.8010 -20.8010
    -5.6920  -5.5706  -4.7803  -4.6670  -3.2136  -3.1834  -2.2759  -2.2324
    -2.1117  -1.8026  -1.2724  -1.2358  -1.0999  -1.0772  -0.8141  -0.6570
    -0.5868  -0.4567  -0.3335  -0.2118   0.2712   0.4418   0.9237   0.9641
     1.1286   1.1874   1.3842   1.4496   5.6193   5.9506   6.0553   6.1451
     6.2190   6.2580   6.6290   6.6636   7.0887   7.2771   7.3540   7.6405
     7.7972   7.9279

          k = 0.0000 0.4286 0.1868 ( 30349 PWs)   bands (ev):

   -49.2093 -49.2093 -48.9007 -48.9007 -48.9001 -48.9001 -48.8981 -48.8981
   -48.8975 -48.8975 -21.1556 -21.1553 -21.1196 -21.1196 -21.1195 -21.1194
   -20.8684 -20.8680 -20.8655 -20.8653 -20.8465 -20.8464 -20.8397 -20.8395
   -20.8370 -20.8368 -20.8309 -20.8307 -20.8216 -20.8205 -20.8173 -20.8169
   -20.8168 -20.8167 -20.8125 -20.8124 -20.8016 -20.8016 -20.8010 -20.8010
    -5.6698  -5.5845  -4.7781  -4.6983  -3.2124  -3.1906  -2.2680  -2.2379
    -1.9735  -1.7113  -1.2666  -1.2308  -1.1588  -1.1536  -0.9439  -0.8035
    -0.5516  -0.4576  -0.2712  -0.1835   0.3154   0.4418   0.9192   0.9318
     1.1101   1.1323   1.4492   1.5304   5.7052   5.9861   6.0663   6.1020
     6.2921   6.3178   6.4670   6.5767   7.0428   7.1098   7.4987   7.6963
     7.9205   7.9695

          k = 0.0000 0.4286 0.2803 ( 30325 PWs)   bands (ev):

   -49.2093 -49.2093 -48.9007 -48.9007 -48.9001 -48.9001 -48.8981 -48.8981
   -48.8975 -48.8975 -21.1555 -21.1554 -21.1196 -21.1195 -21.1195 -21.1194
   -20.8682 -20.8681 -20.8655 -20.8654 -20.8465 -20.8464 -20.8396 -20.8396
   -20.8370 -20.8369 -20.8308 -20.8307 -20.8213 -20.8209 -20.8171 -20.8170
   -20.8168 -20.8167 -20.8124 -20.8124 -20.8016 -20.8016 -20.8010 -20.8010
    -5.6393  -5.6084  -4.7641  -4.7352  -3.2077  -3.1996  -2.2572  -2.2465
    -1.7915  -1.6683  -1.2495  -1.2323  -1.2070  -1.2001  -1.0560  -0.9864
    -0.4881  -0.4567  -0.2133  -0.1821   0.3685   0.4170   0.8991   0.9031
     1.0973   1.1151   1.5234   1.5577   5.8260   5.9466   6.0235   6.0357
     6.3228   6.3748   6.6173   6.6346   6.8621   6.8984   7.6516   7.7723
     7.8843   7.9170

          k = 0.1429 0.1429 0.0000 ( 30316 PWs)   bands (ev):

   -49.2093 -49.2093 -48.9015 -48.9015 -48.8991 -48.8991 -48.8990 -48.8990
   -48.8968 -48.8968 -21.1565 -21.1544 -21.1202 -21.1199 -21.1191 -21.1188
   -20.8725 -20.8714 -20.8615 -20.8614 -20.8586 -20.8585 -20.8552 -20.8550
   -20.8277 -20.8273 -20.8257 -20.8229 -20.8224 -20.8222 -20.8218 -20.8217
   -20.8054 -20.8053 -20.8052 -20.8051 -20.8021 -20.8018 -20.8018 -20.8017
    -6.0093  -5.7153  -4.3099  -4.0460  -3.3517  -3.2402  -2.5130  -2.1434
    -2.0102  -1.8194  -1.7012  -1.1529  -1.1481  -1.0707  -1.0226  -0.7323
    -0.6729  -0.6421  -0.3573  -0.1907   0.4268   0.7705   0.8544   0.9006
     1.1108   1.3141   1.4579   1.5260   4.7894   5.5635   6.2787   6.3115
     6.3591   6.3959   6.7743   6.8504   6.9203   6.9563   7.0193   7.1141
     7.2452   7.6779

          k = 0.1429 0.1429 0.0934 ( 30346 PWs)   bands (ev):

   -49.2093 -49.2093 -48.9015 -48.9015 -48.8991 -48.8991 -48.8990 -48.8990
   -48.8968 -48.8968 -21.1564 -21.1545 -21.1201 -21.1199 -21.1191 -21.1189
   -20.8724 -20.8714 -20.8614 -20.8614 -20.8586 -20.8585 -20.8552 -20.8550
   -20.8277 -20.8273 -20.8256 -20.8231 -20.8224 -20.8222 -20.8218 -20.8217
   -20.8054 -20.8053 -20.8052 -20.8051 -20.8020 -20.8019 -20.8018 -20.8017
    -5.9966  -5.7322  -4.2986  -4.0613  -3.3514  -3.2488  -2.4532  -2.1367
    -2.0163  -1.8130  -1.7105  -1.2653  -1.1075  -1.0306  -0.9886  -0.7876
    -0.6787  -0.6479  -0.3657  -0.2479   0.5034   0.8149   0.8705   0.9267
     1.1022   1.2625   1.4335   1.5340   4.8234   5.5704   6.1465   6.3292
     6.4105   6.4346   6.6510   6.8571   6.9193   6.9638   6.9908   7.1818
     7.2171   7.7662

          k = 0.1429 0.1429 0.1868 ( 30320 PWs)   bands (ev):

   -49.2093 -49.2093 -48.9015 -48.9015 -48.8991 -48.8991 -48.8990 -48.8990
   -48.8968 -48.8968 -21.1561 -21.1548 -21.1199 -21.1198 -21.1192 -21.1191
   -20.8723 -20.8716 -20.8614 -20.8614 -20.8586 -20.8585 -20.8551 -20.8550
   -20.8276 -20.8273 -20.8252 -20.8235 -20.8223 -20.8222 -20.8218 -20.8217
   -20.8054 -20.8054 -20.8052 -20.8051 -20.8020 -20.8019 -20.8017 -20.8017
    -5.9602  -5.7779  -4.2661  -4.1026  -3.3456  -3.2716  -2.2881  -2.1181
    -2.0340  -1.7931  -1.7399  -1.4568  -1.0548  -1.0111  -0.9886  -0.7546
    -0.6866  -0.6589  -0.4020  -0.3952   0.6372   0.8945   0.9283   1.0174
     1.0785   1.1851   1.3655   1.5025   4.9269   5.5017   6.1123   6.2800
     6.4159   6.5447   6.5499   6.8157   6.8242   6.9085   6.9205   7.2663
     7.4143   7.8783

          k = 0.1429 0.1429 0.2803 ( 30315 PWs)   bands (ev):

   -49.2093 -49.2093 -48.9015 -48.9015 -48.8991 -48.8991 -48.8990 -48.8990
   -48.8968 -48.8968 -21.1557 -21.1552 -21.1196 -21.1196 -21.1194 -21.1193
   -20.8720 -20.8718 -20.8614 -20.8614 -20.8586 -20.8586 -20.8551 -20.8551
   -20.8275 -20.8274 -20.8247 -20.8241 -20.8223 -20.8223 -20.8218 -20.8218
   -20.8054 -20.8054 -20.8052 -20.8051 -20.8020 -20.8019 -20.8017 -20.8017
    -5.9052  -5.8404  -4.2170  -4.1588  -3.3284  -3.3012  -2.0911  -2.0663
    -2.0469  -1.8236  -1.7574  -1.6714  -1.0721  -1.0651  -0.8255  -0.7123
    -0.6790  -0.6135  -0.5649  -0.4803   0.7531   0.8522   1.0047   1.0517
     1.1869   1.2075   1.2709   1.3900   5.0962   5.3084   6.2091   6.2567
     6.4272   6.4747   6.6001   6.6637   6.8189   6.8718   6.9813   7.2648
     7.5495   7.8407

          k = 0.1429 0.2857 0.0000 ( 30320 PWs)   bands (ev):

   -49.2093 -49.2093 -48.9012 -48.9012 -48.8994 -48.8994 -48.8987 -48.8987
   -48.8971 -48.8971 -21.1562 -21.1547 -21.1201 -21.1197 -21.1193 -21.1189
   -20.8694 -20.8686 -20.8615 -20.8613 -20.8547 -20.8546 -20.8487 -20.8485
   -20.8309 -20.8305 -20.8250 -20.8247 -20.8241 -20.8218 -20.8204 -20.8203
   -20.8112 -20.8109 -20.8075 -20.8074 -20.8041 -20.8040 -20.8023 -20.8022
    -5.8577  -5.5958  -4.5557  -4.3051  -3.5503  -3.4765  -2.3597  -1.9841
    -1.8767  -1.4949  -1.4461  -1.3160  -1.1442  -1.0481  -0.9109  -0.6788
    -0.6742  -0.6055  -0.5026  -0.2831   0.4746   0.7810   0.8131   0.9098
     1.0198   1.3521   1.3894   1.5080   5.1232   5.8006   6.0041   6.2071
     6.3167   6.4733   6.6241   6.6577   6.7522   7.1551   7.2177   7.2286
     7.4330   7.9026

          k = 0.1429 0.2857 0.0934 ( 30329 PWs)   bands (ev):

   -49.2093 -49.2093 -48.9012 -48.9012 -48.8994 -48.8994 -48.8987 -48.8987
   -48.8971 -48.8971 -21.1561 -21.1548 -21.1200 -21.1197 -21.1193 -21.1190
   -20.8694 -20.8686 -20.8614 -20.8613 -20.8547 -20.8546 -20.8487 -20.8485
   -20.8309 -20.8306 -20.8250 -20.8247 -20.8240 -20.8219 -20.8204 -20.8203
   -20.8112 -20.8109 -20.8075 -20.8074 -20.8041 -20.8040 -20.8023 -20.8022
    -5.8460  -5.6102  -4.5459  -4.3203  -3.5499  -3.4820  -2.3049  -1.9806
    -1.8805  -1.5246  -1.4148  -1.3160  -1.1493  -1.0625  -0.8858  -0.7431
    -0.6708  -0.6200  -0.4786  -0.3392   0.5119   0.7848   0.8369   0.8993
     1.0338   1.2956   1.4284   1.5141   5.1561   5.7932   6.0265   6.2593
     6.2901   6.4018   6.5354   6.6929   6.8518   7.1916   7.2285   7.2590
     7.3701   7.8224

          k = 0.1429 0.2857 0.1868 ( 30341 PWs)   bands (ev):

   -49.2093 -49.2093 -48.9012 -48.9012 -48.8994 -48.8994 -48.8987 -48.8987
   -48.8971 -48.8971 -21.1559 -21.1550 -21.1199 -21.1196 -21.1194 -21.1191
   -20.8693 -20.8687 -20.8614 -20.8613 -20.8547 -20.8546 -20.8487 -20.8485
   -20.8308 -20.8306 -20.8249 -20.8248 -20.8236 -20.8222 -20.8204 -20.8203
   -20.8111 -20.8109 -20.8075 -20.8074 -20.8041 -20.8040 -20.8023 -20.8022
    -5.8127  -5.6497  -4.5170  -4.3612  -3.5458  -3.4969  -2.1541  -1.9714
    -1.8891  -1.5797  -1.4281  -1.2733  -1.1529  -1.1106  -0.9013  -0.7656
    -0.6861  -0.6114  -0.4861  -0.4379   0.5687   0.7730   0.8225   0.9191
     1.1098   1.2841   1.4052   1.5240   5.2495   5.7013   6.0995   6.2932
     6.3427   6.4257   6.4596   6.6431   6.9153   7.0982   7.2246   7.3010
     7.4897   7.7795

          k = 0.1429 0.2857 0.2803 ( 30325 PWs)   bands (ev):

   -49.2093 -49.2093 -48.9012 -48.9012 -48.8994 -48.8994 -48.8987 -48.8987
   -48.8971 -48.8971 -21.1556 -21.1553 -21.1196 -21.1195 -21.1195 -21.1194
   -20.8691 -20.8689 -20.8614 -20.8614 -20.8547 -20.8546 -20.8486 -20.8486
   -20.8308 -20.8307 -20.8249 -20.8248 -20.8232 -20.8227 -20.8204 -20.8203
   -20.8111 -20.8110 -20.8075 -20.8074 -20.8041 -20.8040 -20.8023 -20.8022
    -5.7627  -5.7046  -4.4716  -4.4161  -3.5344  -3.5163  -1.9640  -1.9620
    -1.8765  -1.7006  -1.4761  -1.3132  -1.1223  -1.0590  -0.9276  -0.7965
    -0.7050  -0.5953  -0.5341  -0.4588   0.6164   0.6826   0.8652   0.9091
     1.2219   1.2979   1.3928   1.4825   5.3872   5.5474   6.1349   6.2756
     6.3842   6.4855   6.6053   6.6715   6.8288   6.9444   7.2302   7.2852
     7.5313   7.8104

          k = 0.1429 0.4286 0.0000 ( 30370 PWs)   bands (ev):

   -49.2093 -49.2093 -48.9006 -48.9006 -48.9000 -48.9000 -48.8982 -48.8982
   -48.8976 -48.8976 -21.1557 -21.1552 -21.1199 -21.1196 -21.1194 -21.1191
   -20.8663 -20.8658 -20.8635 -20.8632 -20.8464 -20.8462 -20.8396 -20.8394
   -20.8373 -20.8370 -20.8308 -20.8305 -20.8215 -20.8198 -20.8176 -20.8176
   -20.8172 -20.8162 -20.8130 -20.8129 -20.8036 -20.8036 -20.8029 -20.8029
    -5.6431  -5.5082  -4.7686  -4.6375  -3.5729  -3.5447  -2.1145  -1.9020
    -1.8520  -1.7968  -1.5424  -1.4656  -0.8891  -0.7959  -0.7470  -0.6957
    -0.5568  -0.4149  -0.3615  -0.2267   0.2603   0.4199   0.8570   0.8945
     1.0512   1.2097   1.4487   1.5071   5.5220   5.7906   5.9397   5.9726
     6.3569   6.4370   6.5520   6.6677   7.0393   7.2215   7.2959   7.5134
     7.6303   7.7968

          k = 0.1429 0.4286 0.0934 ( 30336 PWs)   bands (ev):

   -49.2093 -49.2093 -48.9006 -48.9006 -48.9000 -48.9000 -48.8982 -48.8982
   -48.8976 -48.8976 -21.1557 -21.1552 -21.1199 -21.1196 -21.1194 -21.1192
   -20.8663 -20.8658 -20.8635 -20.8632 -20.8464 -20.8462 -20.8396 -20.8394
   -20.8373 -20.8370 -20.8307 -20.8305 -20.8214 -20.8199 -20.8176 -20.8175
   -20.8172 -20.8162 -20.8130 -20.8129 -20.8036 -20.8036 -20.8029 -20.8029
    -5.6351  -5.5126  -4.7685  -4.6495  -3.5731  -3.5473  -2.0713  -1.9080
    -1.8506  -1.7639  -1.5363  -1.4714  -0.9091  -0.8197  -0.7367  -0.6788
    -0.6260  -0.4917  -0.3127  -0.2036   0.2747   0.4242   0.8149   0.8442
     1.1069   1.2359   1.4604   1.5150   5.5578   5.8157   5.9816   6.0283
     6.2982   6.3556   6.5427   6.7021   7.0640   7.2104   7.3058   7.4837
     7.6672   7.8196

          k = 0.1429 0.4286 0.1868 ( 30346 PWs)   bands (ev):

   -49.2093 -49.2093 -48.9006 -48.9006 -48.9000 -48.9000 -48.8982 -48.8982
   -48.8976 -48.8976 -21.1556 -21.1553 -21.1198 -21.1196 -21.1194 -21.1193
   -20.8662 -20.8659 -20.8635 -20.8632 -20.8463 -20.8462 -20.8396 -20.8394
   -20.8373 -20.8371 -20.8307 -20.8305 -20.8212 -20.8202 -20.8177 -20.8175
   -20.8170 -20.8163 -20.8130 -20.8129 -20.8036 -20.8036 -20.8029 -20.8029
    -5.6128  -5.5267  -4.7641  -4.6804  -3.5724  -3.5538  -1.9720  -1.9152
    -1.8334  -1.7156  -1.5004  -1.4479  -1.0283  -0.8826  -0.7904  -0.7415
    -0.6166  -0.5174  -0.2618  -0.1809   0.3042   0.4221   0.7362   0.7623
     1.1982   1.2764   1.4825   1.5383   5.6543   5.8706   6.0175   6.1208
     6.2759   6.3425   6.4882   6.6591   7.0583   7.0867   7.4525   7.5229
     7.6878   7.8325

          k = 0.1429 0.4286 0.2803 ( 30334 PWs)   bands (ev):

   -49.2093 -49.2093 -48.9006 -48.9006 -48.9000 -48.9000 -48.8982 -48.8982
   -48.8976 -48.8976 -21.1555 -21.1554 -21.1196 -21.1195 -21.1195 -21.1194
   -20.8661 -20.8660 -20.8634 -20.8633 -20.8463 -20.8462 -20.8395 -20.8395
   -20.8372 -20.8371 -20.8307 -20.8306 -20.8209 -20.8205 -20.8177 -20.8175
   -20.8168 -20.8164 -20.8130 -20.8129 -20.8036 -20.8036 -20.8029 -20.8029
    -5.5822  -5.5510  -4.7479  -4.7176  -3.5687  -3.5617  -1.9291  -1.9089
    -1.7598  -1.7108  -1.4420  -1.3207  -1.2127  -1.0591  -0.8316  -0.7815
    -0.5456  -0.5072  -0.2139  -0.1828   0.3402   0.3893   0.6855   0.7076
     1.2625   1.2896   1.5154   1.5473   5.7749   5.8716   6.0271   6.0833
     6.3348   6.3955   6.5919   6.6641   6.9038   6.9551   7.5606   7.6047
     7.6653   7.7882

          k = 0.2857 0.2857 0.0000 ( 30314 PWs)   bands (ev):

   -49.2093 -49.2093 -48.9008 -48.9008 -48.8991 -48.8991 -48.8990 -48.8990
   -48.8975 -48.8975 -21.1559 -21.1549 -21.1201 -21.1196 -21.1194 -21.1189
   -20.8651 -20.8644 -20.8578 -20.8575 -20.8528 -20.8528 -20.8455 -20.8453
   -20.8335 -20.8331 -20.8247 -20.8244 -20.8232 -20.8223 -20.8215 -20.8203
   -20.8121 -20.8114 -20.8103 -20.8100 -20.8077 -20.8075 -20.8059 -20.8057
    -5.7018  -5.4588  -4.6282  -4.3452  -3.9439  -3.9357  -2.2108  -1.7909
    -1.7646  -1.3835  -1.3272  -1.2655  -1.1578  -0.9088  -0.7993  -0.6768
    -0.6267  -0.5089  -0.4645  -0.3318   0.4905   0.7308   0.7850   0.8178
     0.8185   1.2377   1.4980   1.6344   5.2390   5.6686   5.8928   5.9557
     6.2991   6.3587   6.4680   6.7078   7.0468   7.2207   7.3528   7.4458
     7.4913   7.6339

          k = 0.2857 0.2857 0.0934 ( 30338 PWs)   bands (ev):

   -49.2093 -49.2093 -48.9008 -48.9008 -48.8991 -48.8991 -48.8990 -48.8990
   -48.8975 -48.8975 -21.1559 -21.1550 -21.1201 -21.1196 -21.1194 -21.1189
   -20.8651 -20.8644 -20.8578 -20.8575 -20.8528 -20.8528 -20.8455 -20.8453
   -20.8334 -20.8331 -20.8247 -20.8244 -20.8231 -20.8223 -20.8215 -20.8204
   -20.8121 -20.8114 -20.8102 -20.8100 -20.8077 -20.8075 -20.8059 -20.8057
    -5.6908  -5.4720  -4.6161  -4.3617  -3.9464  -3.9378  -2.1654  -1.8178
    -1.7660  -1.3421  -1.3379  -1.2189  -1.1683  -0.9062  -0.8018  -0.6946
    -0.6497  -0.5088  -0.4812  -0.3828   0.4913   0.6947   0.7209   0.8327
     0.8969   1.2717   1.5077   1.6230   5.2786   5.6741   5.9498   6.0197
     6.2244   6.3022   6.6170   6.6716   7.1035   7.1943   7.3693   7.4682
     7.4779   7.5817

          k = 0.2857 0.2857 0.1868 ( 30335 PWs)   bands (ev):

   -49.2093 -49.2093 -48.9008 -48.9008 -48.8991 -48.8991 -48.8990 -48.8990
   -48.8975 -48.8975 -21.1558 -21.1551 -21.1199 -21.1196 -21.1194 -21.1191
   -20.8650 -20.8645 -20.8578 -20.8576 -20.8528 -20.8528 -20.8455 -20.8453
   -20.8334 -20.8332 -20.8246 -20.8244 -20.8229 -20.8224 -20.8214 -20.8206
   -20.8120 -20.8115 -20.8102 -20.8101 -20.8077 -20.8076 -20.8058 -20.8057
    -5.6595  -5.5082  -4.5814  -4.4062  -3.9509  -3.9431  -2.0551  -1.8703
    -1.7467  -1.3456  -1.2511  -1.2036  -1.1652  -0.8981  -0.8506  -0.7407
    -0.5964  -0.5864  -0.5094  -0.4494   0.4621   0.5678   0.7135   0.8206
     1.0717   1.3190   1.5220   1.5932   5.3811   5.6587   6.0419   6.1881
     6.2298   6.3242   6.5567   6.7516   7.0358   7.1773   7.3913   7.4281
     7.5366   7.5677

          k = 0.2857 0.2857 0.2803 ( 30321 PWs)   bands (ev):

   -49.2093 -49.2093 -48.9008 -48.9008 -48.8991 -48.8991 -48.8990 -48.8990
   -48.8975 -48.8975 -21.1556 -21.1553 -21.1197 -21.1195 -21.1195 -21.1194
   -20.8648 -20.8647 -20.8577 -20.8576 -20.8528 -20.8528 -20.8454 -20.8454
   -20.8333 -20.8332 -20.8246 -20.8245 -20.8227 -20.8225 -20.8212 -20.8209
   -20.8118 -20.8117 -20.8102 -20.8101 -20.8076 -20.8076 -20.8058 -20.8058
    -5.6128  -5.5589  -4.5288  -4.4665  -3.9524  -3.9491  -1.9621  -1.9161
    -1.6351  -1.4399  -1.2613  -1.2503  -1.0163  -0.8851  -0.8846  -0.8007
    -0.6490  -0.5842  -0.5033  -0.4793   0.4280   0.4537   0.7574   0.7952
     1.2305   1.3187   1.5310   1.5565   5.5013   5.5973   6.1280   6.1990
     6.3902   6.4553   6.5897   6.7824   6.7914   7.1222   7.2656   7.3902
     7.6050   7.6272

          k = 0.2857 0.4286 0.0000 ( 30385 PWs)   bands (ev):

   -49.2093 -49.2093 -48.9002 -48.9002 -48.8996 -48.8996 -48.8986 -48.8986
   -48.8980 -48.8980 -21.1556 -21.1552 -21.1201 -21.1199 -21.1192 -21.1190
   -20.8610 -20.8604 -20.8580 -20.8576 -20.8466 -20.8464 -20.8389 -20.8386
   -20.8381 -20.8379 -20.8298 -20.8296 -20.8211 -20.8203 -20.8189 -20.8182
   -20.8171 -20.8161 -20.8144 -20.8142 -20.8086 -20.8084 -20.8075 -20.8073
    -5.4769  -5.3381  -4.7583  -4.5949  -4.0953  -4.0892  -1.9735  -1.9246
    -1.9093  -1.6700  -1.1292  -1.1150  -1.0448  -0.9059  -0.5266  -0.5095
    -0.4647  -0.4165  -0.2859  -0.2114   0.2797   0.3758   0.7552   0.7591
     0.8474   1.0278   1.6367   1.6857   5.3882   5.4974   5.6511   5.7251
     6.3793   6.4275   6.6640   6.8217   6.8638   7.0209   7.2382   7.6817
     7.8860   7.9685

          k = 0.2857 0.4286 0.0934 ( 30346 PWs)   bands (ev):

   -49.2093 -49.2093 -48.9002 -48.9002 -48.8996 -48.8996 -48.8986 -48.8986
   -48.8980 -48.8980 -21.1556 -21.1553 -21.1200 -21.1199 -21.1192 -21.1190
   -20.8609 -20.8604 -20.8580 -20.8576 -20.8466 -20.8464 -20.8389 -20.8386
   -20.8381 -20.8379 -20.8298 -20.8296 -20.8210 -20.8203 -20.8189 -20.8183
   -20.8170 -20.8162 -20.8144 -20.8142 -20.8086 -20.8084 -20.8075 -20.8073
    -5.4688  -5.3429  -4.7541  -4.6061  -4.0978  -4.0927  -2.0006  -1.9596
    -1.8455  -1.6060  -1.1374  -1.0915  -1.0276  -0.8647  -0.6190  -0.5135
    -0.5056  -0.4631  -0.2595  -0.1953   0.2841   0.3711   0.6451   0.6691
     0.9673   1.1066   1.6384   1.6816   5.4393   5.5435   5.7145   5.7734
     6.3088   6.3990   6.6784   6.8268   6.9116   7.0310   7.2696   7.6671
     7.7534   7.9084

          k = 0.2857 0.4286 0.1868 ( 30320 PWs)   bands (ev):

   -49.2093 -49.2093 -48.9002 -48.9002 -48.8996 -48.8996 -48.8986 -48.8986
   -48.8980 -48.8980 -21.1555 -21.1553 -21.1199 -21.1197 -21.1193 -21.1192
   -20.8609 -20.8605 -20.8579 -20.8577 -20.8466 -20.8464 -20.8389 -20.8387
   -20.8380 -20.8379 -20.8298 -20.8297 -20.8209 -20.8204 -20.8188 -20.8185
   -20.8169 -20.8162 -20.8143 -20.8142 -20.8085 -20.8084 -20.8075 -20.8074
    -5.4465  -5.3580  -4.7399  -4.6361  -4.1032  -4.1001  -2.0377  -2.0174
    -1.6942  -1.4565  -1.1424  -1.1009  -0.9683  -0.8116  -0.7740  -0.6570
    -0.5261  -0.4689  -0.2344  -0.1807   0.2656   0.3458   0.5156   0.5709
     1.1130   1.2069   1.6418   1.6710   5.5749   5.6609   5.8422   5.9125
     6.1875   6.4082   6.6029   6.8583   6.9164   7.0540   7.3611   7.5687
     7.6656   7.7243

          k = 0.2857 0.4286 0.2803 ( 30336 PWs)   bands (ev):

   -49.2093 -49.2093 -48.9002 -48.9002 -48.8996 -48.8996 -48.8986 -48.8986
   -48.8980 -48.8980 -21.1555 -21.1554 -21.1196 -21.1196 -21.1194 -21.1194
   -20.8607 -20.8606 -20.8578 -20.8578 -20.8465 -20.8465 -20.8388 -20.8387
   -20.8380 -20.8379 -20.8298 -20.8297 -20.8207 -20.8205 -20.8188 -20.8186
   -20.8167 -20.8163 -20.8143 -20.8142 -20.8085 -20.8084 -20.8075 -20.8074
    -5.4155  -5.3835  -4.7130  -4.6756  -4.1070  -4.1059  -2.0608  -2.0549
    -1.4844  -1.3098  -1.1898  -1.1110  -1.0391  -0.9585  -0.7352  -0.6620
    -0.5489  -0.4749  -0.2146  -0.1874   0.2346   0.2675   0.4897   0.5172
     1.2166   1.2500   1.6466   1.6585   5.7284   5.7700   5.9227   6.0278
     6.1714   6.3510   6.6391   6.7389   6.9160   7.0875   7.3932   7.4714
     7.5838   7.7065

          k = 0.4286 0.4286 0.0000 ( 30310 PWs)   bands (ev):

   -49.2093 -49.2093 -48.8997 -48.8997 -48.8991 -48.8991 -48.8990 -48.8990
   -48.8985 -48.8985 -21.1555 -21.1553 -21.1201 -21.1201 -21.1190 -21.1189
   -20.8549 -20.8544 -20.8524 -20.8518 -20.8471 -20.8469 -20.8426 -20.8423
   -20.8339 -20.8338 -20.8291 -20.8290 -20.8234 -20.8230 -20.8204 -20.8199
   -20.8173 -20.8166 -20.8145 -20.8141 -20.8134 -20.8121 -20.8115 -20.8109
    -5.2256  -5.1050  -4.8165  -4.5973  -4.5224  -4.4309  -2.0900  -2.0838
    -1.7530  -1.5346  -1.3650  -1.1734  -0.5743  -0.4798  -0.4694  -0.4271
    -0.3238  -0.2841  -0.1889  -0.1055   0.1408   0.3132   0.6020   0.6768
     0.6817   0.7550   1.7703   1.7880   5.2908   5.2995   5.3946   5.4409
     6.3529   6.5414   6.6253   6.8709   7.1082   7.3516   7.4922   7.5460
     7.7132   7.7190

          k = 0.4286 0.4286 0.0934 ( 30303 PWs)   bands (ev):

   -49.2093 -49.2093 -48.8997 -48.8997 -48.8991 -48.8991 -48.8990 -48.8990
   -48.8985 -48.8985 -21.1555 -21.1553 -21.1201 -21.1200 -21.1190 -21.1190
   -20.8549 -20.8544 -20.8523 -20.8519 -20.8471 -20.8469 -20.8425 -20.8423
   -20.8339 -20.8338 -20.8291 -20.8290 -20.8233 -20.8230 -20.8203 -20.8199
   -20.8172 -20.8167 -20.8145 -20.8142 -20.8133 -20.8122 -20.8115 -20.8110
    -5.2187  -5.1096  -4.8040  -4.5917  -4.5396  -4.4428  -2.1205  -2.1185
    -1.6882  -1.4889  -1.3016  -1.1262  -0.5880  -0.5620  -0.4883  -0.4746
    -0.3296  -0.2790  -0.1594  -0.1120   0.1627   0.3070   0.4304   0.4985
     0.8355   0.9029   1.7701   1.7857   5.3532   5.3613   5.4644   5.5026
     6.2959   6.4821   6.6384   6.8935   7.1679   7.3846   7.4487   7.4992
     7.6043   7.6565

          k = 0.4286 0.4286 0.1868 ( 30342 PWs)   bands (ev):

   -49.2093 -49.2093 -48.8997 -48.8997 -48.8991 -48.8991 -48.8990 -48.8990
   -48.8985 -48.8985 -21.1554 -21.1554 -21.1199 -21.1199 -21.1192 -21.1192
   -20.8548 -20.8545 -20.8523 -20.8519 -20.8471 -20.8470 -20.8425 -20.8423
   -20.8339 -20.8338 -20.8291 -20.8290 -20.8233 -20.8230 -20.8203 -20.8200
   -20.8172 -20.8167 -20.8145 -20.8142 -20.8132 -20.8124 -20.8114 -20.8110
    -5.1995  -5.1235  -4.7681  -4.5860  -4.5750  -4.4736  -2.1783  -2.1779
    -1.5298  -1.3598  -1.1637  -1.0157  -0.7580  -0.7224  -0.5188  -0.4560
    -0.3505  -0.2885  -0.1336  -0.1313   0.1803   0.2546   0.2685   0.3362
     0.9808   1.0275   1.7699   1.7803   5.5200   5.5285   5.6382   5.6675
     6.1578   6.3347   6.6942   6.9848   7.1248   7.2466   7.3036   7.4336
     7.6551   7.7123

          k = 0.4286 0.4286 0.2803 ( 30381 PWs)   bands (ev):

   -49.2093 -49.2093 -48.8997 -48.8997 -48.8991 -48.8991 -48.8990 -48.8990
   -48.8985 -48.8985 -21.1554 -21.1554 -21.1197 -21.1197 -21.1194 -21.1194
   -20.8547 -20.8546 -20.8521 -20.8520 -20.8471 -20.8470 -20.8424 -20.8424
   -20.8339 -20.8338 -20.8291 -20.8290 -20.8232 -20.8231 -20.8202 -20.8201
   -20.8170 -20.8169 -20.8144 -20.8143 -20.8129 -20.8126 -20.8113 -20.8112
    -5.1730  -5.1458  -4.7136  -4.6488  -4.5478  -4.5120  -2.2168  -2.2166
    -1.3187  -1.1682  -1.1213  -0.9446  -0.9227  -0.9039  -0.4847  -0.4319
    -0.3801  -0.3265  -0.1599  -0.1488   0.1159   0.1414   0.2716   0.2992
     1.0674   1.0840   1.7708   1.7745   5.7122   5.7387   5.7874   5.9043
     5.9772   6.1375   6.7435   6.8395   7.1494   7.1840   7.3705   7.4354
     7.4442   7.5807

     the Fermi energy is     3.2523 ev

!    total energy              =   -1223.63889825 Ry
     estimated scf accuracy    <          1.3E-09 Ry
     smearing contrib. (-TS)   =       0.00000000 Ry
     internal energy E=F+TS    =   -1223.63889825 Ry

     The total energy is F=E-TS. E is the sum of the following terms:
     one-electron contribution =    -816.26843154 Ry
     hartree contribution      =     437.30626030 Ry
     xc contribution           =    -179.81865995 Ry
     ewald contribution        =    -456.83013240 Ry
     one-center paw contrib.   =    -208.02793467 Ry

     convergence has been achieved in   9 iterations

     Forces acting on atoms (cartesian axes, Ry/au):

     atom    1 type  2   force =     0.00000000    0.00000000    0.00000000
     atom    2 type  2   force =     0.00000000    0.00000000    0.00000000
     atom    3 type  2   force =     0.00000000    0.00000000    0.00000000
     atom    4 type  2   force =     0.00000000    0.00000000    0.00000000
     atom    5 type  2   force =     0.00000000    0.00000000    0.00000000
     atom    6 type  2   force =     0.00000000    0.00000000    0.00000000
     atom    7 type  3   force =     0.00000000    0.00000000    0.00000000
     atom    8 type  3   force =     0.00000000    0.00000000    0.00000000
     atom    9 type  3   force =    -0.00058200   -0.00058200    0.00000000
     atom   10 type  3   force =     0.00058200   -0.00058200   -0.00000000
     atom   11 type  3   force =    -0.00058200    0.00058200   -0.00000000
     atom   12 type  3   force =     0.00058200    0.00058200    0.00000000
     atom   13 type  3   force =    -0.00058200   -0.00058200   -0.00000000
     atom   14 type  3   force =     0.00058200   -0.00058200    0.00000000
     atom   15 type  3   force =    -0.00058200    0.00058200    0.00000000
     atom   16 type  3   force =     0.00058200    0.00058200   -0.00000000
     atom   17 type  1   force =     0.00101044   -0.00185758    0.00239654
     atom   18 type  1   force =    -0.00101044    0.00185758    0.00239654
     atom   19 type  1   force =    -0.00185758    0.00101044   -0.00239654
     atom   20 type  1   force =    -0.00185758   -0.00101044    0.00239654
     atom   21 type  1   force =     0.00185758    0.00101044    0.00239654
     atom   22 type  1   force =    -0.00101044   -0.00185758   -0.00239654
     atom   23 type  1   force =     0.00101044    0.00185758   -0.00239654
     atom   24 type  1   force =     0.00185758   -0.00101044   -0.00239654
     atom   25 type  1   force =    -0.00101044    0.00185758   -0.00239654
     atom   26 type  1   force =     0.00101044   -0.00185758   -0.00239654
     atom   27 type  1   force =     0.00185758   -0.00101044    0.00239654
     atom   28 type  1   force =     0.00185758    0.00101044   -0.00239654
     atom   29 type  1   force =    -0.00185758   -0.00101044   -0.00239654
     atom   30 type  1   force =     0.00101044    0.00185758    0.00239654
     atom   31 type  1   force =    -0.00101044   -0.00185758    0.00239654
     atom   32 type  1   force =    -0.00185758    0.00101044    0.00239654
     atom   33 type  1   force =     0.00000000    0.00000000    0.00255938
     atom   34 type  1   force =     0.00000000    0.00000000   -0.00255938
     atom   35 type  1   force =     0.00000000    0.00000000   -0.00255938
     atom   36 type  1   force =     0.00000000    0.00000000    0.00255938
     atom   37 type  1   force =    -0.00067247    0.00229945    0.00000000
     atom   38 type  1   force =    -0.00229945   -0.00067247    0.00000000
     atom   39 type  1   force =     0.00229945    0.00067247   -0.00000000
     atom   40 type  1   force =    -0.00067247   -0.00229945    0.00000000
     atom   41 type  1   force =     0.00067247    0.00229945    0.00000000
     atom   42 type  1   force =     0.00067247   -0.00229945    0.00000000
     atom   43 type  1   force =     0.00229945   -0.00067247    0.00000000
     atom   44 type  1   force =    -0.00229945    0.00067247    0.00000000

     Total force =     0.015523     Total SCF correction =     0.000019


     Computing stress (Cartesian axis) and pressure

          total   stress  (Ry/bohr**3)                   (kbar)     P=       17.07
   0.00011213   0.00000000   0.00000000           16.50        0.00        0.00
   0.00000000   0.00011213   0.00000000            0.00       16.50        0.00
   0.00000000   0.00000000   0.00012375            0.00        0.00       18.20


     BFGS Geometry Optimization
     Energy error            =      0.0E+00 Ry
     Gradient error          =      2.6E-03 Ry/Bohr
     Cell gradient error     =      1.8E+01 kbar

     number of scf cycles    =   1
     number of bfgs steps    =   0

     enthalpy           new  =   -1223.6388982517 Ry

     new trust radius        =       0.0342687476 bohr
     new conv_thr            =       0.0000000100 Ry

     new unit-cell volume =   3094.06989 a.u.^3 (   458.49385 Ang^3 )
     density =      1.52107 g/cm^3

CELL_PARAMETERS (alat= 12.61135185)
   1.002803349   0.000000000   0.000000000
   0.000000000   1.002803349   0.000000000
   0.000000000   0.000000000   1.533958603

ATOMIC_POSITIONS (crystal)
Al            0.0000000000        0.0000000000        0.0000000000
Al            0.5000000000        0.5000000000        0.5000000000
Al            0.0000000000        0.5000000000        0.0000000000
Al            0.5000000000        0.0000000000        0.0000000000
Al            0.5000000000        0.0000000000        0.5000000000
Al            0.0000000000        0.5000000000        0.5000000000
Na            0.0000000000        0.0000000000        0.5000000000
Na            0.5000000000        0.5000000000        0.0000000000
Na            0.2873009508        0.7873009508        0.2500000000
Na            0.2126990492        0.2873009508        0.2500000000
Na            0.7873009508        0.7126990492        0.2500000000
Na            0.7126990492        0.2126990492        0.2500000000
Na            0.2873009508        0.7873009508        0.7500000000
Na            0.2126990492        0.2873009508        0.7500000000
Na            0.7873009508        0.7126990492        0.7500000000
Na            0.7126990492        0.2126990492        0.7500000000
H             0.5438780812        0.8199033954        0.1176379655
H             0.4561219188        0.1800966046        0.1176379655
H             0.3199033954        0.0438780812        0.3823620345
H             0.8199033954        0.4561219188        0.1176379655
H             0.1800966046        0.5438780812        0.1176379655
H             0.9561219188        0.3199033954        0.3823620345
H             0.0438780812        0.6800966046        0.3823620345
H             0.6800966046        0.9561219188        0.3823620345
H             0.4561219188        0.1800966046        0.8823620345
H             0.5438780812        0.8199033954        0.8823620345
H             0.6800966046        0.9561219188        0.6176379655
H             0.1800966046        0.5438780812        0.8823620345
H             0.8199033954        0.4561219188        0.8823620345
H             0.0438780812        0.6800966046        0.6176379655
H             0.9561219188        0.3199033954        0.6176379655
H             0.3199033954        0.0438780812        0.6176379655
H             0.0000000000        0.0000000000        0.1706375393
H             0.5000000000        0.5000000000        0.3293624607
H             0.0000000000        0.0000000000        0.8293624607
H             0.5000000000        0.5000000000        0.6706375393
H             0.7523200476        0.0753040618        0.0000000000
H             0.9246959382        0.7523200476        0.0000000000
H             0.0753040618        0.2476799524       -0.0000000000
H             0.2523200476        0.4246959382        0.5000000000
H             0.7476799524        0.5753040618        0.5000000000
H             0.2476799524        0.9246959382        0.0000000000
H             0.5753040618        0.2523200476        0.5000000000
H             0.4246959382        0.7476799524        0.5000000000



     Writing config-only to output data dir ./Na5Al3H14.save/
     NEW-OLD atomic charge density approx. for the potential
     extrapolated charge  137.17577, renormalised to  136.00000

     total cpu time spent up to now is      154.5 secs

     Self-consistent Calculation

     iteration #  1     ecut=    70.00 Ry     beta= 0.70
     Davidson diagonalization with overlap
     c_bands:  1 eigenvalues not converged
     ethr =  1.00E-06,  avg # of iterations =  9.7

     total cpu time spent up to now is      176.6 secs

     total energy              =   -1223.59708088 Ry
     estimated scf accuracy    <       0.02589944 Ry

     iteration #  2     ecut=    70.00 Ry     beta= 0.70
     Davidson diagonalization with overlap
     ethr =  1.90E-05,  avg # of iterations =  3.7

     total cpu time spent up to now is      192.8 secs

     total energy              =   -1223.64252527 Ry
     estimated scf accuracy    <       0.04632463 Ry

     iteration #  3     ecut=    70.00 Ry     beta= 0.70
     Davidson diagonalization with overlap
     ethr =  1.90E-05,  avg # of iterations =  2.0

     total cpu time spent up to now is      204.3 secs

     total energy              =   -1223.64225908 Ry
     estimated scf accuracy    <       0.00928392 Ry

     iteration #  4     ecut=    70.00 Ry     beta= 0.70
     Davidson diagonalization with overlap
     ethr =  6.83E-06,  avg # of iterations =  1.1

     total cpu time spent up to now is      214.0 secs

     total energy              =   -1223.64146660 Ry
     estimated scf accuracy    <       0.00264789 Ry

     iteration #  5     ecut=    70.00 Ry     beta= 0.70
     Davidson diagonalization with overlap
     ethr =  1.95E-06,  avg # of iterations =  3.1

     total cpu time spent up to now is      226.2 secs

     total energy              =   -1223.64164788 Ry
     estimated scf accuracy    <       0.00026372 Ry

     iteration #  6     ecut=    70.00 Ry     beta= 0.70
     Davidson diagonalization with overlap
     ethr =  1.94E-07,  avg # of iterations =  3.1

     total cpu time spent up to now is      239.8 secs

     total energy              =   -1223.64174659 Ry
     estimated scf accuracy    <       0.00000913 Ry

     iteration #  7     ecut=    70.00 Ry     beta= 0.70
     Davidson diagonalization with overlap
     ethr =  6.72E-09,  avg # of iterations =  3.9

     total cpu time spent up to now is      254.2 secs

     total energy              =   -1223.64174967 Ry
     estimated scf accuracy    <       0.00000345 Ry

     iteration #  8     ecut=    70.00 Ry     beta= 0.70
     Davidson diagonalization with overlap
     ethr =  2.53E-09,  avg # of iterations =  1.6

     total cpu time spent up to now is      264.2 secs

     total energy              =   -1223.64174908 Ry
     estimated scf accuracy    <       0.00000110 Ry

     iteration #  9     ecut=    70.00 Ry     beta= 0.70
     Davidson diagonalization with overlap
     ethr =  8.07E-10,  avg # of iterations =  2.0

     total cpu time spent up to now is      276.9 secs

     total energy              =   -1223.64174943 Ry
     estimated scf accuracy    <       0.00000009 Ry

     iteration # 10     ecut=    70.00 Ry     beta= 0.70
     Davidson diagonalization with overlap
     ethr =  6.70E-11,  avg # of iterations =  2.6

     total cpu time spent up to now is      289.7 secs

     End of self-consistent calculation

          k = 0.0000 0.0000 0.0000 ( 30351 PWs)   bands (ev):

   -49.2714 -49.2713 -48.9623 -48.9623 -48.9596 -48.9596 -48.9596 -48.9596
   -48.9572 -48.9572 -21.2181 -21.2157 -21.1817 -21.1817 -21.1805 -21.1805
   -20.9343 -20.9332 -20.9204 -20.9204 -20.9203 -20.9203 -20.9197 -20.9194
   -20.8865 -20.8862 -20.8858 -20.8835 -20.8819 -20.8819 -20.8819 -20.8819
   -20.8635 -20.8635 -20.8632 -20.8632 -20.8616 -20.8612 -20.8604 -20.8603
    -6.1241  -5.8186  -4.1267  -3.8781  -2.7999  -2.6594  -2.6414  -2.5293
    -2.5293  -2.3556  -2.3556  -1.1555  -1.0489  -0.8690  -0.8690  -0.7739
    -0.6920  -0.6920  -0.2925  -0.1563   0.2757   0.6646   0.6646   0.8730
     1.1173   1.3285   1.3285   1.5679   4.4177   5.2758   6.2887   6.2887
     6.3393   6.4477   6.4892   6.9728   6.9728   6.9914   7.0882   7.1602
     7.1602   7.4615

          k = 0.0000 0.0000 0.0931 ( 30351 PWs)   bands (ev):

   -49.2714 -49.2713 -48.9623 -48.9623 -48.9596 -48.9596 -48.9596 -48.9596
   -48.9572 -48.9572 -21.2180 -21.2158 -21.1817 -21.1817 -21.1805 -21.1805
   -20.9343 -20.9332 -20.9204 -20.9204 -20.9203 -20.9203 -20.9197 -20.9194
   -20.8864 -20.8862 -20.8858 -20.8837 -20.8819 -20.8819 -20.8819 -20.8819
   -20.8634 -20.8634 -20.8632 -20.8632 -20.8616 -20.8612 -20.8604 -20.8603
    -6.1111  -5.8364  -4.1160  -3.8925  -2.8185  -2.6737  -2.5577  -2.5211
    -2.5211  -2.3647  -2.3647  -1.2355  -1.0096  -0.8635  -0.8635  -0.7975
    -0.7056  -0.7056  -0.3245  -0.2110   0.4019   0.7026   0.7026   0.8943
     1.1097   1.2995   1.2995   1.5308   4.4558   5.2830   6.2612   6.2612
     6.3398   6.3856   6.4768   6.7531   6.7531   6.9611   7.1724   7.4311
     7.4311   7.5169

          k = 0.0000 0.0000 0.1863 ( 30359 PWs)   bands (ev):

   -49.2714 -49.2713 -48.9623 -48.9623 -48.9596 -48.9596 -48.9596 -48.9596
   -48.9572 -48.9572 -21.2176 -21.2161 -21.1815 -21.1815 -21.1807 -21.1807
   -20.9341 -20.9334 -20.9204 -20.9204 -20.9203 -20.9203 -20.9196 -20.9195
   -20.8862 -20.8860 -20.8859 -20.8841 -20.8819 -20.8819 -20.8819 -20.8819
   -20.8634 -20.8634 -20.8633 -20.8633 -20.8615 -20.8613 -20.8603 -20.8603
    -6.0736  -5.8843  -4.0853  -3.9313  -2.8244  -2.7114  -2.4980  -2.4980
    -2.3897  -2.3897  -2.3649  -1.4797  -0.8984  -0.8466  -0.8466  -0.7638
    -0.7397  -0.7397  -0.4121  -0.3536   0.6733   0.8051   0.8051   0.9445
     1.0871   1.2162   1.2162   1.4164   4.5753   5.2295   6.1992   6.2230
     6.2230   6.5026   6.5165   6.5165   6.5255   6.8816   7.2338   7.5784
     7.7632   7.7633

          k = 0.0000 0.0000 0.2794 ( 30336 PWs)   bands (ev):

   -49.2714 -49.2713 -48.9623 -48.9623 -48.9596 -48.9596 -48.9596 -48.9596
   -48.9572 -48.9572 -21.2172 -21.2166 -21.1812 -21.1812 -21.1810 -21.1810
   -20.9339 -20.9336 -20.9204 -20.9204 -20.9203 -20.9203 -20.9196 -20.9195
   -20.8861 -20.8860 -20.8854 -20.8847 -20.8819 -20.8819 -20.8819 -20.8819
   -20.8634 -20.8634 -20.8633 -20.8633 -20.8614 -20.8614 -20.8603 -20.8603
    -6.0167  -5.9494  -4.0390  -3.9842  -2.8013  -2.7590  -2.4640  -2.4640
    -2.4253  -2.4253  -2.1021  -1.7945  -0.8185  -0.8185  -0.7809  -0.7809
    -0.7335  -0.6614  -0.5410  -0.5335   0.9448   0.9448   0.9666   1.0009
     1.0502   1.0911   1.0911   1.2241   4.7765   5.0270   6.2400   6.2400
     6.2960   6.3394   6.3394   6.4780   6.6425   6.7722   7.2376   7.3057
     7.9822   7.9822

          k = 0.0000 0.1425 0.0000 ( 30333 PWs)   bands (ev):

   -49.2714 -49.2713 -48.9622 -48.9622 -48.9597 -48.9597 -48.9595 -48.9595
   -48.9573 -48.9573 -21.2180 -21.2158 -21.1817 -21.1817 -21.1805 -21.1805
   -20.9331 -20.9321 -20.9209 -20.9209 -20.9199 -20.9198 -20.9159 -20.9158
   -20.8873 -20.8869 -20.8860 -20.8832 -20.8827 -20.8826 -20.8814 -20.8813
   -20.8658 -20.8658 -20.8633 -20.8631 -20.8628 -20.8625 -20.8608 -20.8607
    -6.0718  -5.7743  -4.2557  -4.0025  -3.1011  -2.9747  -2.5893  -2.4945
    -2.3380  -2.0041  -1.8583  -1.2192  -1.0743  -0.9454  -0.9165  -0.7712
    -0.7690  -0.7508  -0.3425  -0.1978   0.3427   0.6961   0.7530   0.8646
     1.0995   1.3204   1.3262   1.5204   4.5778   5.4073   6.2499   6.2750
     6.2927   6.3314   6.6382   6.7368   6.9004   7.0496   7.0714   7.1604
     7.2213   7.4326

          k = 0.0000 0.1425 0.0931 ( 30333 PWs)   bands (ev):

   -49.2714 -49.2713 -48.9622 -48.9622 -48.9597 -48.9597 -48.9595 -48.9595
   -48.9573 -48.9573 -21.2179 -21.2159 -21.1816 -21.1816 -21.1806 -21.1806
   -20.9331 -20.9321 -20.9209 -20.9209 -20.9199 -20.9198 -20.9159 -20.9158
   -20.8872 -20.8869 -20.8858 -20.8833 -20.8827 -20.8826 -20.8814 -20.8813
   -20.8658 -20.8658 -20.8633 -20.8631 -20.8628 -20.8625 -20.8608 -20.8607
    -6.0590  -5.7915  -4.2450  -4.0172  -3.1030  -2.9849  -2.5258  -2.4870
    -2.3458  -1.9956  -1.8692  -1.2648  -1.0762  -0.9417  -0.8949  -0.8088
    -0.7693  -0.7622  -0.3592  -0.2533   0.4420   0.7278   0.7939   0.8862
     1.0924   1.2722   1.2943   1.5144   4.6137   5.4148   6.1760   6.2204
     6.3095   6.3378   6.6396   6.6886   6.8403   6.8582   7.1341   7.2070
     7.3484   7.5844

          k = 0.0000 0.1425 0.1863 ( 30329 PWs)   bands (ev):

   -49.2714 -49.2713 -48.9622 -48.9622 -48.9597 -48.9597 -48.9595 -48.9595
   -48.9573 -48.9573 -21.2176 -21.2162 -21.1815 -21.1814 -21.1808 -21.1807
   -20.9329 -20.9323 -20.9209 -20.9209 -20.9199 -20.9198 -20.9159 -20.9159
   -20.8872 -20.8869 -20.8855 -20.8837 -20.8827 -20.8826 -20.8814 -20.8814
   -20.8658 -20.8658 -20.8633 -20.8631 -20.8627 -20.8626 -20.8608 -20.8607
    -6.0223  -5.8379  -4.2141  -4.0571  -3.0990  -3.0123  -2.4657  -2.3681
    -2.3550  -1.9695  -1.9006  -1.4705  -1.0020  -0.9307  -0.8805  -0.8408
    -0.8140  -0.7022  -0.4209  -0.3884   0.6404   0.8146   0.9163   0.9365
     1.0718   1.1505   1.2224   1.4596   4.7252   5.3529   6.1109   6.1864
     6.2371   6.3953   6.6036   6.6178   6.7221   6.7328   7.1686   7.2882
     7.4740   7.8757

          k = 0.0000 0.1425 0.2794 ( 30338 PWs)   bands (ev):

   -49.2714 -49.2713 -48.9622 -48.9622 -48.9597 -48.9597 -48.9595 -48.9595
   -48.9573 -48.9573 -21.2171 -21.2166 -21.1812 -21.1812 -21.1810 -21.1810
   -20.9327 -20.9325 -20.9209 -20.9209 -20.9199 -20.9199 -20.9159 -20.9159
   -20.8871 -20.8870 -20.8849 -20.8843 -20.8826 -20.8826 -20.8814 -20.8814
   -20.8658 -20.8658 -20.8632 -20.8632 -20.8627 -20.8626 -20.8608 -20.8607
    -5.9668  -5.9012  -4.1670  -4.1112  -3.0797  -3.0476  -2.4346  -2.3996
    -2.1237  -1.9589  -1.9156  -1.7451  -0.9327  -0.9169  -0.8683  -0.8607
    -0.7756  -0.5983  -0.5934  -0.4906   0.8252   0.9259   0.9798   1.0177
     1.0224   1.0661   1.1730   1.3304   4.9119   5.1480   6.1718   6.1759
     6.2563   6.3753   6.5003   6.5128   6.7230   6.7446   7.1384   7.2107
     7.6794   7.9772

          k = 0.0000 0.2849 0.0000 ( 30308 PWs)   bands (ev):

   -49.2714 -49.2713 -48.9618 -48.9618 -48.9601 -48.9601 -48.9592 -48.9592
   -48.9576 -48.9576 -21.2176 -21.2161 -21.1815 -21.1815 -21.1807 -21.1807
   -20.9306 -20.9297 -20.9226 -20.9225 -20.9150 -20.9148 -20.9087 -20.9086
   -20.8907 -20.8903 -20.8854 -20.8851 -20.8843 -20.8820 -20.8798 -20.8798
   -20.8716 -20.8713 -20.8673 -20.8672 -20.8629 -20.8627 -20.8611 -20.8610
    -5.9224  -5.6600  -4.5677  -4.3311  -3.2401  -3.1525  -2.4357  -2.4078
    -2.2876  -1.5155  -1.3448  -1.3309  -1.1204  -0.9899  -0.9379  -0.8394
    -0.8242  -0.7058  -0.4777  -0.3054   0.4161   0.7481   0.7760   0.8926
     1.0359   1.3074   1.3228   1.3875   4.9971   5.7409   6.0286   6.1916
     6.2131   6.3086   6.5885   6.5998   6.7483   7.0350   7.2288   7.2882
     7.4160   7.5847

          k = 0.0000 0.2849 0.0931 ( 30322 PWs)   bands (ev):

   -49.2714 -49.2713 -48.9618 -48.9618 -48.9601 -48.9601 -48.9592 -48.9592
   -48.9576 -48.9576 -21.2175 -21.2162 -21.1815 -21.1814 -21.1808 -21.1807
   -20.9305 -20.9298 -20.9226 -20.9225 -20.9150 -20.9148 -20.9087 -20.9086
   -20.8906 -20.8903 -20.8854 -20.8852 -20.8842 -20.8821 -20.8798 -20.8798
   -20.8715 -20.8713 -20.8673 -20.8672 -20.8629 -20.8627 -20.8611 -20.8610
    -5.9107  -5.6744  -4.5591  -4.3460  -3.2399  -3.1591  -2.4018  -2.3778
    -2.2930  -1.4983  -1.3433  -1.3311  -1.1181  -1.0873  -0.9352  -0.8533
    -0.7768  -0.7372  -0.4663  -0.3565   0.4721   0.7589   0.8014   0.9116
     1.0474   1.2078   1.2935   1.4633   5.0301   5.7554   6.0294   6.1740
     6.2445   6.2637   6.4214   6.5662   6.8598   7.0612   7.2406   7.2652
     7.4552   7.6994

          k = 0.0000 0.2849 0.1863 ( 30317 PWs)   bands (ev):

   -49.2714 -49.2713 -48.9618 -48.9618 -48.9601 -48.9601 -48.9592 -48.9592
   -48.9576 -48.9576 -21.2173 -21.2164 -21.1814 -21.1813 -21.1809 -21.1808
   -20.9304 -20.9299 -20.9225 -20.9225 -20.9149 -20.9148 -20.9087 -20.9086
   -20.8906 -20.8904 -20.8854 -20.8852 -20.8839 -20.8824 -20.8798 -20.8798
   -20.8715 -20.8713 -20.8673 -20.8672 -20.8628 -20.8628 -20.8611 -20.8610
    -5.8773  -5.7140  -4.5330  -4.3857  -3.2353  -3.1767  -2.3849  -2.3106
    -2.2154  -1.5236  -1.3380  -1.3326  -1.1839  -1.1113  -0.9792  -0.9136
    -0.8009  -0.6329  -0.5317  -0.4138   0.5820   0.7900   0.8487   0.9328
     1.0732   1.0852   1.2793   1.4963   5.1283   5.6819   6.0604   6.1028
     6.2208   6.3487   6.3529   6.5076   6.8238   7.0370   7.1945   7.3206
     7.5694   7.9313

          k = 0.0000 0.2849 0.2794 ( 30310 PWs)   bands (ev):

   -49.2714 -49.2713 -48.9618 -48.9618 -48.9601 -48.9601 -48.9592 -48.9592
   -48.9576 -48.9576 -21.2170 -21.2167 -21.1812 -21.1812 -21.1810 -21.1810
   -20.9302 -20.9301 -20.9225 -20.9225 -20.9149 -20.9149 -20.9087 -20.9086
   -20.8905 -20.8904 -20.8853 -20.8853 -20.8834 -20.8829 -20.8798 -20.8798
   -20.8714 -20.8714 -20.8672 -20.8672 -20.8628 -20.8628 -20.8611 -20.8611
    -5.8272  -5.7690  -4.4910  -4.4384  -3.2214  -3.1999  -2.3606  -2.3339
    -1.9829  -1.7221  -1.3401  -1.3366  -1.1367  -1.1050  -1.0084  -0.9747
    -0.7877  -0.6872  -0.5169  -0.4410   0.6896   0.7794   0.8866   0.9204
     1.0270   1.0717   1.3498   1.4509   5.2865   5.4875   6.0340   6.0444
     6.3146   6.3980   6.5052   6.5079   6.6917   6.8488   7.2577   7.3187
     7.6959   7.9329

          k = 0.0000 0.4274 0.0000 ( 30358 PWs)   bands (ev):

   -49.2714 -49.2713 -48.9612 -48.9612 -48.9607 -48.9607 -48.9587 -48.9587
   -48.9581 -48.9581 -21.2171 -21.2166 -21.1813 -21.1812 -21.1810 -21.1809
   -20.9278 -20.9272 -20.9250 -20.9247 -20.9063 -20.9061 -20.8996 -20.8995
   -20.8972 -20.8970 -20.8910 -20.8908 -20.8817 -20.8800 -20.8776 -20.8770
   -20.8770 -20.8766 -20.8727 -20.8726 -20.8623 -20.8622 -20.8616 -20.8616
    -5.7124  -5.5802  -4.7974  -4.6740  -3.2430  -3.2105  -2.3066  -2.2586
    -2.1897  -1.8700  -1.3067  -1.2708  -1.1055  -1.0688  -0.8408  -0.6585
    -0.5894  -0.4465  -0.4310  -0.2800   0.2084   0.3919   0.8705   0.9312
     1.0646   1.2166   1.3112   1.3200   5.5035   5.8504   5.9350   6.0165
     6.1952   6.2388   6.6268   6.7150   6.8943   7.2417   7.3156   7.5169
     7.5987   7.7601

          k = 0.0000 0.4274 0.0931 ( 30366 PWs)   bands (ev):

   -49.2714 -49.2713 -48.9612 -48.9612 -48.9607 -48.9607 -48.9587 -48.9587
   -48.9581 -48.9581 -21.2171 -21.2166 -21.1813 -21.1812 -21.1810 -21.1809
   -20.9277 -20.9272 -20.9250 -20.9247 -20.9063 -20.9061 -20.8996 -20.8995
   -20.8972 -20.8970 -20.8910 -20.8908 -20.8816 -20.8801 -20.8775 -20.8770
   -20.8770 -20.8767 -20.8727 -20.8726 -20.8623 -20.8622 -20.8616 -20.8616
    -5.7044  -5.5845  -4.7982  -4.6862  -3.2432  -3.2133  -2.3037  -2.2608
    -2.1390  -1.8319  -1.3064  -1.2695  -1.1337  -1.1109  -0.8493  -0.6935
    -0.6263  -0.4964  -0.3737  -0.2532   0.2272   0.3963   0.8742   0.9143
     1.0781   1.1368   1.3319   1.3970   5.5342   5.8688   5.9808   6.0670
     6.1549   6.1955   6.5454   6.5841   7.0134   7.2039   7.2766   7.5670
     7.7109   7.8404

          k = 0.0000 0.4274 0.1863 ( 30349 PWs)   bands (ev):

   -49.2714 -49.2713 -48.9612 -48.9612 -48.9607 -48.9607 -48.9587 -48.9587
   -48.9581 -48.9581 -21.2170 -21.2167 -21.1812 -21.1812 -21.1811 -21.1810
   -20.9277 -20.9273 -20.9249 -20.9247 -20.9063 -20.9062 -20.8996 -20.8995
   -20.8972 -20.8970 -20.8910 -20.8908 -20.8814 -20.8804 -20.8773 -20.8771
   -20.8769 -20.8767 -20.8727 -20.8727 -20.8623 -20.8622 -20.8616 -20.8616
    -5.6825  -5.5982  -4.7959  -4.7170  -3.2420  -3.2204  -2.2959  -2.2663
    -2.0020  -1.7412  -1.3007  -1.2645  -1.1925  -1.1875  -0.9790  -0.8399
    -0.5900  -0.4965  -0.3114  -0.2248   0.2712   0.3964   0.8698   0.8825
     1.0595   1.0813   1.3965   1.4773   5.6202   5.9085   5.9898   6.0368
     6.2175   6.2362   6.3930   6.5000   6.9668   7.0361   7.4226   7.6249
     7.8344   7.8867

          k = 0.0000 0.4274 0.2794 ( 30325 PWs)   bands (ev):

   -49.2713 -49.2713 -48.9612 -48.9612 -48.9607 -48.9607 -48.9587 -48.9587
   -48.9581 -48.9581 -21.2169 -21.2168 -21.1812 -21.1811 -21.1811 -21.1810
   -20.9276 -20.9274 -20.9249 -20.9248 -20.9063 -20.9062 -20.8996 -20.8995
   -20.8971 -20.8971 -20.8909 -20.8909 -20.8811 -20.8808 -20.8772 -20.8771
   -20.8769 -20.8768 -20.8727 -20.8727 -20.8622 -20.8622 -20.8616 -20.8616
    -5.6524  -5.6219  -4.7820  -4.7535  -3.2373  -3.2293  -2.2853  -2.2747
    -1.8211  -1.6984  -1.2844  -1.2666  -1.2407  -1.2336  -1.0899  -1.0215
    -0.5266  -0.4954  -0.2538  -0.2231   0.3238   0.3721   0.8500   0.8540
     1.0464   1.0640   1.4703   1.5044   5.7430   5.8725   5.9438   5.9672
     6.2422   6.2918   6.5467   6.5593   6.7851   6.8246   7.5775   7.6989
     7.8053   7.8333

          k = 0.1425 0.1425 0.0000 ( 30316 PWs)   bands (ev):

   -49.2714 -49.2713 -48.9620 -48.9620 -48.9596 -48.9596 -48.9596 -48.9596
   -48.9574 -48.9574 -21.2178 -21.2159 -21.1817 -21.1815 -21.1807 -21.1805
   -20.9318 -20.9307 -20.9208 -20.9207 -20.9182 -20.9181 -20.9145 -20.9143
   -20.8882 -20.8878 -20.8854 -20.8828 -20.8825 -20.8823 -20.8819 -20.8818
   -20.8659 -20.8658 -20.8657 -20.8656 -20.8626 -20.8625 -20.8624 -20.8623
    -6.0193  -5.7287  -4.3320  -4.0707  -3.3774  -3.2672  -2.5376  -2.1721
    -2.0410  -1.8514  -1.7346  -1.1849  -1.1821  -1.1055  -1.0575  -0.7724
    -0.7097  -0.6791  -0.3957  -0.2315   0.3803   0.7222   0.8054   0.8524
     1.0619   1.2619   1.4046   1.4737   4.7066   5.5013   6.1923   6.2499
     6.2964   6.3201   6.7053   6.7760   6.8568   6.8865   6.9513   7.0501
     7.1467   7.6037

          k = 0.1425 0.1425 0.0931 ( 30346 PWs)   bands (ev):

   -49.2714 -49.2713 -48.9620 -48.9620 -48.9596 -48.9596 -48.9596 -48.9596
   -48.9574 -48.9574 -21.2178 -21.2160 -21.1817 -21.1815 -21.1807 -21.1805
   -20.9317 -20.9308 -20.9208 -20.9207 -20.9182 -20.9181 -20.9145 -20.9143
   -20.8881 -20.8878 -20.8853 -20.8829 -20.8825 -20.8823 -20.8819 -20.8818
   -20.8659 -20.8658 -20.8657 -20.8656 -20.8625 -20.8625 -20.8624 -20.8623
    -6.0067  -5.7454  -4.3208  -4.0858  -3.3771  -3.2756  -2.4783  -2.1656
    -2.0470  -1.8451  -1.7437  -1.2974  -1.1418  -1.0653  -1.0232  -0.8272
    -0.7156  -0.6849  -0.4040  -0.2883   0.4565   0.7663   0.8213   0.8783
     1.0533   1.2109   1.3804   1.4815   4.7407   5.5052   6.0713   6.2664
     6.3362   6.3644   6.5782   6.7896   6.8545   6.8902   6.9267   7.1064
     7.1311   7.6818

          k = 0.1425 0.1425 0.1863 ( 30320 PWs)   bands (ev):

   -49.2714 -49.2713 -48.9620 -48.9620 -48.9596 -48.9596 -48.9596 -48.9596
   -48.9574 -48.9574 -21.2175 -21.2163 -21.1815 -21.1814 -21.1808 -21.1807
   -20.9316 -20.9309 -20.9208 -20.9207 -20.9182 -20.9181 -20.9145 -20.9144
   -20.8881 -20.8878 -20.8849 -20.8833 -20.8824 -20.8823 -20.8819 -20.8819
   -20.8659 -20.8659 -20.8657 -20.8656 -20.8625 -20.8625 -20.8624 -20.8624
    -5.9707  -5.7906  -4.2886  -4.1267  -3.3713  -3.2981  -2.3146  -2.1472
    -2.0644  -1.8255  -1.7726  -1.4886  -1.0895  -1.0467  -1.0239  -0.7922
    -0.7236  -0.6961  -0.4403  -0.4347   0.5897   0.8450   0.8796   0.9680
     1.0296   1.1343   1.3129   1.4500   4.8445   5.4274   6.0439   6.2168
     6.3482   6.4729   6.4782   6.7464   6.7587   6.8263   6.8609   7.1859
     7.3362   7.7914

          k = 0.1425 0.1425 0.2794 ( 30315 PWs)   bands (ev):

   -49.2714 -49.2713 -48.9620 -48.9620 -48.9596 -48.9596 -48.9596 -48.9596
   -48.9574 -48.9574 -21.2171 -21.2167 -21.1812 -21.1812 -21.1810 -21.1810
   -20.9314 -20.9311 -20.9208 -20.9207 -20.9182 -20.9181 -20.9144 -20.9144
   -20.8880 -20.8879 -20.8844 -20.8838 -20.8824 -20.8824 -20.8819 -20.8819
   -20.8659 -20.8659 -20.8656 -20.8656 -20.8625 -20.8625 -20.8624 -20.8624
    -5.9163  -5.8522  -4.2399  -4.1823  -3.3543  -3.3274  -2.1206  -2.0959
    -2.0755  -1.8543  -1.7901  -1.7036  -1.1067  -1.1002  -0.8619  -0.7493
    -0.7162  -0.6514  -0.6029  -0.5183   0.7049   0.8031   0.9561   1.0030
     1.1359   1.1567   1.2190   1.3381   5.0145   5.2286   6.1440   6.1929
     6.3622   6.4063   6.5256   6.5911   6.7589   6.8122   6.8982   7.1843
     7.4634   7.7554

          k = 0.1425 0.2849 0.0000 ( 30320 PWs)   bands (ev):

   -49.2714 -49.2713 -48.9617 -48.9617 -48.9600 -48.9600 -48.9593 -48.9593
   -48.9578 -48.9578 -21.2175 -21.2162 -21.1817 -21.1813 -21.1810 -21.1806
   -20.9288 -20.9280 -20.9209 -20.9208 -20.9143 -20.9141 -20.9083 -20.9081
   -20.8913 -20.8910 -20.8851 -20.8848 -20.8838 -20.8817 -20.8806 -20.8804
   -20.8714 -20.8711 -20.8679 -20.8678 -20.8647 -20.8646 -20.8629 -20.8627
    -5.8687  -5.6099  -4.5754  -4.3273  -3.5756  -3.5027  -2.3854  -2.0148
    -1.9087  -1.5276  -1.4777  -1.3479  -1.1808  -1.0815  -0.9471  -0.7159
    -0.7141  -0.6427  -0.5399  -0.3236   0.4285   0.7333   0.7644   0.8601
     0.9708   1.3000   1.3382   1.4545   5.0395   5.7340   5.9241   6.1263
     6.2543   6.4102   6.5428   6.5683   6.6861   7.0807   7.1488   7.1577
     7.3676   7.8084

          k = 0.1425 0.2849 0.0931 ( 30329 PWs)   bands (ev):

   -49.2714 -49.2713 -48.9617 -48.9617 -48.9600 -48.9600 -48.9593 -48.9593
   -48.9578 -48.9578 -21.2175 -21.2162 -21.1816 -21.1813 -21.1810 -21.1806
   -20.9288 -20.9280 -20.9209 -20.9208 -20.9142 -20.9142 -20.9083 -20.9081
   -20.8913 -20.8910 -20.8851 -20.8848 -20.8837 -20.8818 -20.8805 -20.8804
   -20.8714 -20.8711 -20.8679 -20.8678 -20.8646 -20.8646 -20.8629 -20.8627
    -5.8571  -5.6241  -4.5657  -4.3424  -3.5751  -3.5082  -2.3310  -2.0113
    -1.9125  -1.5565  -1.4469  -1.3481  -1.1856  -1.0967  -0.9214  -0.7825
    -0.7079  -0.6573  -0.5160  -0.3794   0.4656   0.7369   0.7882   0.8500
     0.9846   1.2443   1.3761   1.4609   5.0725   5.7212   5.9523   6.1810
     6.2203   6.3354   6.4583   6.6130   6.7820   7.1172   7.1594   7.1850
     7.3034   7.7378

          k = 0.1425 0.2849 0.1863 ( 30341 PWs)   bands (ev):

   -49.2714 -49.2713 -48.9617 -48.9617 -48.9600 -48.9600 -48.9593 -48.9593
   -48.9578 -48.9578 -21.2173 -21.2164 -21.1815 -21.1812 -21.1810 -21.1808
   -20.9286 -20.9281 -20.9209 -20.9208 -20.9142 -20.9142 -20.9082 -20.9081
   -20.8913 -20.8910 -20.8851 -20.8849 -20.8834 -20.8821 -20.8805 -20.8804
   -20.8714 -20.8712 -20.8679 -20.8678 -20.8646 -20.8646 -20.8628 -20.8628
    -5.8242  -5.6631  -4.5370  -4.3828  -3.5711  -3.5228  -2.1815  -2.0024
    -1.9208  -1.6107  -1.4604  -1.3057  -1.1885  -1.1466  -0.9376  -0.8028
    -0.7229  -0.6490  -0.5247  -0.4762   0.5220   0.7246   0.7743   0.8705
     1.0597   1.2327   1.3527   1.4710   5.1663   5.6232   6.0317   6.2219
     6.2760   6.3466   6.3812   6.5661   6.8463   7.0263   7.1575   7.2285
     7.4115   7.6930

          k = 0.1425 0.2849 0.2794 ( 30325 PWs)   bands (ev):

   -49.2714 -49.2713 -48.9617 -48.9617 -48.9600 -48.9600 -48.9593 -48.9593
   -48.9578 -48.9578 -21.2170 -21.2167 -21.1812 -21.1811 -21.1811 -21.1810
   -20.9285 -20.9283 -20.9209 -20.9208 -20.9142 -20.9142 -20.9082 -20.9082
[...]
   -21.1334 -21.1332 -21.1259 -21.1257 -21.1152 -21.1140 -21.1127 -21.1126
   -21.1119 -21.1111 -21.1088 -21.1086 -21.1012 -21.1011 -21.1005 -21.1004
    -5.7080  -5.5810  -4.8626  -4.7382  -3.7049  -3.6799  -2.2445  -2.0287
    -1.9803  -1.9390  -1.6781  -1.6026  -1.0721  -0.9621  -0.9135  -0.8864
    -0.7561  -0.6206  -0.5293  -0.4025   0.0760   0.2293   0.6461   0.6818
     0.8479   0.9985   1.2206   1.2764   5.1680   5.4183   5.6042   5.6271
     6.0771   6.1570   6.2209   6.3135   6.7416   6.8933   6.9908   7.2019
     7.3192   7.4737

          k = 0.1411 0.4233 0.0921 ( 31545 PWs)   bands (ev):

   -49.5167 -49.5167 -49.1984 -49.1984 -49.1979 -49.1979 -49.1964 -49.1964
   -49.1959 -49.1959 -21.4610 -21.4606 -21.4244 -21.4242 -21.4241 -21.4239
   -21.1595 -21.1591 -21.1568 -21.1566 -21.1412 -21.1411 -21.1341 -21.1339
   -21.1334 -21.1332 -21.1259 -21.1257 -21.1152 -21.1140 -21.1127 -21.1126
   -21.1118 -21.1111 -21.1088 -21.1086 -21.1012 -21.1011 -21.1005 -21.1004
    -5.7004  -5.5852  -4.8622  -4.7494  -3.7052  -3.6822  -2.2030  -2.0348
    -1.9792  -1.9060  -1.6738  -1.6088  -1.0893  -0.9881  -0.9085  -0.8657
    -0.8172  -0.6872  -0.4890  -0.3827   0.0892   0.2331   0.6080   0.6356
     0.8987   1.0216   1.2319   1.2842   5.2034   5.4454   5.6488   5.6735
     6.0126   6.0622   6.2195   6.3589   6.7612   6.8802   6.9986   7.1754
     7.3399   7.4976

          k = 0.1411 0.4233 0.1841 ( 31550 PWs)   bands (ev):

   -49.5167 -49.5167 -49.1984 -49.1984 -49.1979 -49.1979 -49.1964 -49.1964
   -49.1959 -49.1959 -21.4609 -21.4607 -21.4243 -21.4242 -21.4241 -21.4240
   -21.1595 -21.1592 -21.1568 -21.1566 -21.1411 -21.1411 -21.1340 -21.1339
   -21.1334 -21.1333 -21.1259 -21.1257 -21.1150 -21.1142 -21.1127 -21.1126
   -21.1117 -21.1112 -21.1087 -21.1087 -21.1012 -21.1012 -21.1005 -21.1004
    -5.6796  -5.5986  -4.8575  -4.7783  -3.7047  -3.6882  -2.1054  -2.0418
    -1.9649  -1.8550  -1.6414  -1.5920  -1.2034  -1.0551  -0.9613  -0.9181
    -0.8033  -0.7134  -0.4394  -0.3622   0.1172   0.2307   0.5347   0.5594
     0.9837   1.0582   1.2534   1.3068   5.2998   5.5066   5.6890   5.7778
     5.9601   6.0350   6.1685   6.3192   6.7222   6.7708   7.1401   7.2209
     7.3355   7.4867

          k = 0.1411 0.4233 0.2762 ( 31571 PWs)   bands (ev):

   -49.5167 -49.5167 -49.1984 -49.1984 -49.1979 -49.1979 -49.1964 -49.1964
   -49.1959 -49.1959 -21.4609 -21.4608 -21.4242 -21.4242 -21.4241 -21.4241
   -21.1594 -21.1593 -21.1567 -21.1567 -21.1411 -21.1411 -21.1340 -21.1340
   -21.1334 -21.1333 -21.1258 -21.1258 -21.1148 -21.1145 -21.1127 -21.1126
   -21.1115 -21.1113 -21.1087 -21.1087 -21.1012 -21.1012 -21.1005 -21.1004
    -5.6508  -5.6216  -4.8418  -4.8131  -3.7016  -3.6954  -2.0569  -2.0362
    -1.8979  -1.8483  -1.5881  -1.4744  -1.3799  -1.2303  -0.9975  -0.9506
    -0.7379  -0.7036  -0.3938  -0.3644   0.1522   0.1994   0.4873   0.5083
     1.0440   1.0697   1.2851   1.3156   5.4239   5.5197   5.6976   5.7613
     6.0080   6.0568   6.2601   6.3293   6.5470   6.6245   7.2503   7.2672
     7.3463   7.4541

          k = 0.2822 0.2822 0.0000 ( 31552 PWs)   bands (ev):

   -49.5167 -49.5167 -49.1986 -49.1986 -49.1971 -49.1971 -49.1971 -49.1971
   -49.1958 -49.1958 -21.4612 -21.4605 -21.4246 -21.4242 -21.4241 -21.4237
   -21.1589 -21.1583 -21.1513 -21.1511 -21.1476 -21.1476 -21.1386 -21.1384
   -21.1303 -21.1301 -21.1196 -21.1194 -21.1176 -21.1173 -21.1156 -21.1143
   -21.1081 -21.1075 -21.1063 -21.1062 -21.1048 -21.1046 -21.1026 -21.1024
    -5.7635  -5.5348  -4.7292  -4.4611  -4.0553  -4.0502  -2.3372  -1.9162
    -1.8942  -1.5459  -1.4702  -1.4261  -1.3079  -1.0698  -0.9663  -0.8659
    -0.8247  -0.6851  -0.6414  -0.5426   0.3083   0.5355   0.5728   0.6058
     0.6248   1.0212   1.2703   1.3999   4.8944   5.2951   5.5432   5.6384
     5.9638   6.0227   6.1992   6.4043   6.7411   6.9304   7.0129   7.1525
     7.1809   7.3331

          k = 0.2822 0.2822 0.0921 ( 31540 PWs)   bands (ev):

   -49.5167 -49.5167 -49.1986 -49.1986 -49.1971 -49.1971 -49.1971 -49.1971
   -49.1958 -49.1958 -21.4611 -21.4605 -21.4246 -21.4242 -21.4241 -21.4237
   -21.1588 -21.1583 -21.1513 -21.1511 -21.1476 -21.1476 -21.1385 -21.1384
   -21.1303 -21.1301 -21.1196 -21.1194 -21.1176 -21.1173 -21.1156 -21.1144
   -21.1080 -21.1076 -21.1063 -21.1062 -21.1048 -21.1046 -21.1026 -21.1024
    -5.7532  -5.5472  -4.7177  -4.4767  -4.0577  -4.0520  -2.2937  -1.9429
    -1.8957  -1.5058  -1.4828  -1.3794  -1.3189  -1.0679  -0.9718  -0.8841
    -0.8393  -0.6851  -0.6622  -0.5860   0.3040   0.4987   0.5183   0.6356
     0.6856   1.0518   1.2793   1.3890   4.9345   5.3078   5.6053   5.6839
     5.9102   5.9680   6.3252   6.3625   6.7946   6.8980   7.0289   7.1669
     7.1742   7.2489

          k = 0.2822 0.2822 0.1841 ( 31564 PWs)   bands (ev):

   -49.5167 -49.5167 -49.1986 -49.1986 -49.1971 -49.1971 -49.1971 -49.1971
   -49.1958 -49.1958 -21.4610 -21.4606 -21.4244 -21.4242 -21.4241 -21.4239
   -21.1588 -21.1584 -21.1513 -21.1512 -21.1476 -21.1476 -21.1385 -21.1384
   -21.1303 -21.1301 -21.1196 -21.1195 -21.1175 -21.1173 -21.1154 -21.1146
   -21.1080 -21.1076 -21.1063 -21.1062 -21.1047 -21.1046 -21.1026 -21.1024
    -5.7236  -5.5812  -4.6848  -4.5187  -4.0621  -4.0565  -2.1864  -1.9950
    -1.8790  -1.4928  -1.4096  -1.3644  -1.3255  -1.0615  -1.0275  -0.9148
    -0.7875  -0.7789  -0.6859  -0.6324   0.2706   0.3736   0.5200   0.6249
     0.8540   1.0945   1.2923   1.3605   5.0396   5.3122   5.7016   5.8189
     5.8893   6.0116   6.2428   6.4419   6.7069   6.8710   7.0613   7.1172
     7.2313   7.2377

          k = 0.2822 0.2822 0.2762 ( 31560 PWs)   bands (ev):

   -49.5167 -49.5167 -49.1986 -49.1986 -49.1971 -49.1971 -49.1971 -49.1971
   -49.1958 -49.1958 -21.4609 -21.4607 -21.4243 -21.4242 -21.4241 -21.4241
   -21.1586 -21.1585 -21.1512 -21.1512 -21.1476 -21.1476 -21.1385 -21.1385
   -21.1302 -21.1302 -21.1196 -21.1195 -21.1175 -21.1174 -21.1152 -21.1149
   -21.1078 -21.1077 -21.1063 -21.1062 -21.1047 -21.1047 -21.1025 -21.1025
    -5.6796  -5.6289  -4.6348  -4.5758  -4.0639  -4.0615  -2.0908  -2.0416
    -1.7780  -1.5933  -1.4101  -1.3979  -1.1937  -1.0545  -1.0515  -0.9869
    -0.8310  -0.7739  -0.6801  -0.6580   0.2385   0.2649   0.5633   0.6002
     1.0066   1.0922   1.3010   1.3255   5.1656   5.2638   5.7732   5.8421
     6.0291   6.1332   6.2665   6.4563   6.4581   6.7788   6.9545   7.0833
     7.2802   7.2814

          k = 0.2822 0.4233 0.0000 ( 31581 PWs)   bands (ev):

   -49.5167 -49.5167 -49.1981 -49.1981 -49.1976 -49.1976 -49.1967 -49.1967
   -49.1962 -49.1962 -21.4609 -21.4607 -21.4246 -21.4244 -21.4239 -21.4238
   -21.1550 -21.1545 -21.1520 -21.1517 -21.1420 -21.1418 -21.1352 -21.1350
   -21.1321 -21.1320 -21.1247 -21.1245 -21.1158 -21.1154 -21.1134 -21.1126
   -21.1121 -21.1115 -21.1099 -21.1096 -21.1051 -21.1049 -21.1041 -21.1038
    -5.5463  -5.4152  -4.8537  -4.6980  -4.2096  -4.2021  -2.1088  -2.0434
    -2.0296  -1.8175  -1.2971  -1.2663  -1.1988  -1.0838  -0.7292  -0.6863
    -0.6428  -0.6238  -0.4587  -0.3899   0.0973   0.1867   0.5420   0.5461
     0.6471   0.8186   1.4033   1.4498   5.0390   5.1318   5.2925   5.3735
     6.0502   6.1385   6.3857   6.5317   6.5395   6.7446   6.9211   7.3728
     7.5494   7.6543

          k = 0.2822 0.4233 0.0921 ( 31563 PWs)   bands (ev):

   -49.5167 -49.5167 -49.1981 -49.1981 -49.1976 -49.1976 -49.1967 -49.1967
   -49.1962 -49.1962 -21.4609 -21.4607 -21.4245 -21.4244 -21.4239 -21.4238
   -21.1549 -21.1546 -21.1520 -21.1517 -21.1420 -21.1419 -21.1352 -21.1350
   -21.1321 -21.1320 -21.1247 -21.1245 -21.1157 -21.1154 -21.1134 -21.1127
   -21.1121 -21.1116 -21.1099 -21.1096 -21.1051 -21.1049 -21.1041 -21.1038
    -5.5387  -5.4198  -4.8495  -4.7086  -4.2119  -4.2054  -2.1267  -2.0781
    -1.9770  -1.7555  -1.2960  -1.2485  -1.1884  -1.0435  -0.8138  -0.7042
    -0.6902  -0.6425  -0.4368  -0.3760   0.1000   0.1819   0.4422   0.4646
     0.7558   0.8905   1.4047   1.4458   5.0894   5.1788   5.3553   5.4178
     5.9813   6.1094   6.3808   6.5233   6.6052   6.7472   6.9588   7.3504
     7.4224   7.5588

          k = 0.2822 0.4233 0.1841 ( 31554 PWs)   bands (ev):

   -49.5167 -49.5167 -49.1981 -49.1981 -49.1976 -49.1976 -49.1967 -49.1967
   -49.1962 -49.1962 -21.4609 -21.4607 -21.4244 -21.4243 -21.4240 -21.4239
   -21.1549 -21.1546 -21.1520 -21.1518 -21.1420 -21.1419 -21.1352 -21.1350
   -21.1321 -21.1320 -21.1247 -21.1246 -21.1157 -21.1155 -21.1133 -21.1128
   -21.1120 -21.1116 -21.1098 -21.1097 -21.1050 -21.1049 -21.1040 -21.1039
    -5.5177  -5.4342  -4.8357  -4.7369  -4.2165  -4.2125  -2.1577  -2.1346
    -1.8371  -1.6123  -1.2999  -1.2556  -1.1393  -0.9945  -0.9562  -0.8461
    -0.7031  -0.6476  -0.4129  -0.3626   0.0803   0.1575   0.3207   0.3738
     0.8938   0.9842   1.4077   1.4355   5.2244   5.3015   5.4863   5.5461
     5.8556   6.0916   6.2964   6.5527   6.5918   6.7580   7.0585   7.2465
     7.3173   7.4062

          k = 0.2822 0.4233 0.2762 ( 31566 PWs)   bands (ev):

   -49.5167 -49.5167 -49.1981 -49.1981 -49.1976 -49.1976 -49.1967 -49.1967
   -49.1962 -49.1962 -21.4608 -21.4608 -21.4243 -21.4242 -21.4241 -21.4241
   -21.1548 -21.1547 -21.1519 -21.1518 -21.1419 -21.1419 -21.1351 -21.1351
   -21.1321 -21.1321 -21.1246 -21.1246 -21.1156 -21.1155 -21.1132 -21.1130
   -21.1119 -21.1117 -21.1098 -21.1097 -21.1050 -21.1049 -21.1040 -21.1039
    -5.4885  -5.4583  -4.8099  -4.7743  -4.2197  -4.2182  -2.1781  -2.1714
    -1.6382  -1.4708  -1.3532  -1.2681  -1.2012  -1.1349  -0.9185  -0.8501
    -0.7241  -0.6539  -0.3934  -0.3684   0.0511   0.0832   0.2969   0.3234
     0.9924   1.0246   1.4121   1.4234   5.3823   5.4265   5.5591   5.6695
     5.8167   6.0025   6.3225   6.4197   6.5869   6.7606   7.0741   7.1604
     7.2781   7.3934

          k = 0.4233 0.4233 0.0000 ( 31588 PWs)   bands (ev):

   -49.5167 -49.5167 -49.1976 -49.1976 -49.1972 -49.1972 -49.1971 -49.1971
   -49.1966 -49.1966 -21.4608 -21.4608 -21.4246 -21.4246 -21.4238 -21.4237
   -21.1497 -21.1493 -21.1471 -21.1467 -21.1429 -21.1428 -21.1388 -21.1386
   -21.1280 -21.1279 -21.1237 -21.1236 -21.1186 -21.1184 -21.1158 -21.1155
   -21.1117 -21.1111 -21.1094 -21.1092 -21.1088 -21.1077 -21.1071 -21.1066
    -5.3021  -5.1866  -4.9093  -4.6941  -4.6310  -4.5376  -2.2013  -2.1957
    -1.8971  -1.6906  -1.5183  -1.3379  -0.7387  -0.6750  -0.6457  -0.6345
    -0.5073  -0.4658  -0.3662  -0.2882  -0.0380   0.1253   0.4020   0.4643
     0.4686   0.5495   1.5319   1.5486   4.9434   4.9439   5.0358   5.0868
     6.0350   6.2206   6.3605   6.6125   6.8330   7.0324   7.2025   7.2103
     7.3734   7.3925

          k = 0.4233 0.4233 0.0921 ( 31577 PWs)   bands (ev):

   -49.5167 -49.5167 -49.1976 -49.1976 -49.1972 -49.1972 -49.1971 -49.1971
   -49.1966 -49.1966 -21.4608 -21.4608 -21.4246 -21.4245 -21.4238 -21.4238
   -21.1497 -21.1493 -21.1470 -21.1467 -21.1429 -21.1428 -21.1387 -21.1386
   -21.1280 -21.1279 -21.1237 -21.1236 -21.1186 -21.1184 -21.1158 -21.1155
   -21.1117 -21.1112 -21.1094 -21.1092 -21.1088 -21.1078 -21.1071 -21.1066
    -5.2954  -5.1912  -4.8975  -4.6888  -4.6472  -4.5487  -2.2310  -2.2298
    -1.8347  -1.6469  -1.4575  -1.2926  -0.7631  -0.7575  -0.6821  -0.6407
    -0.5130  -0.4622  -0.3404  -0.2943  -0.0182   0.1193   0.2346   0.2991
     0.6190   0.6857   1.5316   1.5464   5.0044   5.0045   5.1043   5.1461
     5.9756   6.1572   6.3701   6.6338   6.8901   7.0529   7.1272   7.1816
     7.3044   7.3117

          k = 0.4233 0.4233 0.1841 ( 31567 PWs)   bands (ev):

   -49.5167 -49.5167 -49.1976 -49.1976 -49.1972 -49.1972 -49.1971 -49.1971
   -49.1966 -49.1966 -21.4608 -21.4608 -21.4244 -21.4244 -21.4239 -21.4239
   -21.1496 -21.1494 -21.1470 -21.1467 -21.1429 -21.1428 -21.1387 -21.1386
   -21.1280 -21.1280 -21.1237 -21.1236 -21.1186 -21.1184 -21.1157 -21.1156
   -21.1116 -21.1112 -21.1093 -21.1092 -21.1086 -21.1079 -21.1070 -21.1067
    -5.2772  -5.2046  -4.8633  -4.6909  -4.6730  -4.5775  -2.2878  -2.2868
    -1.6832  -1.5232  -1.3267  -1.1872  -0.9451  -0.9092  -0.6902  -0.6233
    -0.5332  -0.4715  -0.3143  -0.3141  -0.0023   0.0688   0.0800   0.1456
     0.7577   0.8033   1.5311   1.5410   5.1656   5.1704   5.2785   5.3045
     5.8303   5.9999   6.4086   6.7188   6.7803   6.9130   7.0168   7.1323
     7.3214   7.4229

          k = 0.4233 0.4233 0.2762 ( 31547 PWs)   bands (ev):

   -49.5167 -49.5167 -49.1976 -49.1976 -49.1972 -49.1972 -49.1971 -49.1971
   -49.1966 -49.1966 -21.4608 -21.4608 -21.4243 -21.4243 -21.4241 -21.4241
   -21.1495 -21.1495 -21.1469 -21.1468 -21.1429 -21.1429 -21.1387 -21.1386
   -21.1280 -21.1280 -21.1237 -21.1236 -21.1185 -21.1185 -21.1157 -21.1156
   -21.1115 -21.1114 -21.1093 -21.1093 -21.1084 -21.1081 -21.1069 -21.1068
    -5.2520  -5.2260  -4.8116  -4.7503  -4.6473  -4.6135  -2.3248  -2.3244
    -1.4815  -1.3394  -1.2912  -1.1241  -1.0989  -1.0817  -0.6558  -0.6048
    -0.5574  -0.5068  -0.3378  -0.3281  -0.0648  -0.0403   0.0836   0.1105
     0.8404   0.8565   1.5318   1.5352   5.3496   5.3745   5.4354   5.5442
     5.6382   5.7892   6.4193   6.5015   6.8351   6.8986   7.0567   7.1294
     7.1372   7.2525

     the Fermi energy is     2.8951 ev

!    total energy              =   -1223.64574347 Ry
     estimated scf accuracy    <          1.3E-11 Ry
     smearing contrib. (-TS)   =       0.00000000 Ry
     internal energy E=F+TS    =   -1223.64574347 Ry

     The total energy is F=E-TS. E is the sum of the following terms:
     one-electron contribution =    -825.89825859 Ry
     hartree contribution      =     440.70916430 Ry
     xc contribution           =    -179.52132311 Ry
     ewald contribution        =    -450.92981072 Ry
     one-center paw contrib.   =    -208.00551535 Ry

     convergence has been achieved in  11 iterations

     Forces acting on atoms (cartesian axes, Ry/au):

     atom    1 type  2   force =     0.00000000    0.00000000   -0.00000000
     atom    2 type  2   force =     0.00000000    0.00000000   -0.00000000
     atom    3 type  2   force =     0.00000000    0.00000000    0.00000000
     atom    4 type  2   force =     0.00000000    0.00000000   -0.00000000
     atom    5 type  2   force =     0.00000000    0.00000000   -0.00000000
     atom    6 type  2   force =     0.00000000    0.00000000   -0.00000000
     atom    7 type  3   force =     0.00000000    0.00000000   -0.00000000
     atom    8 type  3   force =     0.00000000    0.00000000   -0.00000000
     atom    9 type  3   force =    -0.00013720   -0.00013720    0.00000000
     atom   10 type  3   force =     0.00013720   -0.00013720    0.00000000
     atom   11 type  3   force =    -0.00013720    0.00013720    0.00000000
     atom   12 type  3   force =     0.00013720    0.00013720    0.00000000
     atom   13 type  3   force =    -0.00013720   -0.00013720    0.00000000
     atom   14 type  3   force =     0.00013720   -0.00013720   -0.00000000
     atom   15 type  3   force =    -0.00013720    0.00013720   -0.00000000
     atom   16 type  3   force =     0.00013720    0.00013720    0.00000000
     atom   17 type  1   force =    -0.00011845   -0.00027220    0.00012697
     atom   18 type  1   force =     0.00011845    0.00027220    0.00012697
     atom   19 type  1   force =    -0.00027220   -0.00011845   -0.00012697
     atom   20 type  1   force =    -0.00027220    0.00011845    0.00012697
     atom   21 type  1   force =     0.00027220   -0.00011845    0.00012697
     atom   22 type  1   force =     0.00011845   -0.00027220   -0.00012697
     atom   23 type  1   force =    -0.00011845    0.00027220   -0.00012697
     atom   24 type  1   force =     0.00027220    0.00011845   -0.00012697
     atom   25 type  1   force =     0.00011845    0.00027220   -0.00012697
     atom   26 type  1   force =    -0.00011845   -0.00027220   -0.00012697
     atom   27 type  1   force =     0.00027220    0.00011845    0.00012697
     atom   28 type  1   force =     0.00027220   -0.00011845   -0.00012697
     atom   29 type  1   force =    -0.00027220    0.00011845   -0.00012697
     atom   30 type  1   force =    -0.00011845    0.00027220    0.00012697
     atom   31 type  1   force =     0.00011845   -0.00027220    0.00012697
     atom   32 type  1   force =    -0.00027220   -0.00011845    0.00012697
     atom   33 type  1   force =     0.00000000    0.00000000    0.00014314
     atom   34 type  1   force =     0.00000000    0.00000000   -0.00014314
     atom   35 type  1   force =     0.00000000    0.00000000   -0.00014314
     atom   36 type  1   force =     0.00000000    0.00000000    0.00014314
     atom   37 type  1   force =    -0.00007463   -0.00028424   -0.00000000
     atom   38 type  1   force =     0.00028424   -0.00007463    0.00000000
     atom   39 type  1   force =    -0.00028424    0.00007463    0.00000000
     atom   40 type  1   force =    -0.00007463    0.00028424    0.00000000
     atom   41 type  1   force =     0.00007463   -0.00028424    0.00000000
     atom   42 type  1   force =     0.00007463    0.00028424   -0.00000000
     atom   43 type  1   force =    -0.00028424   -0.00007463    0.00000000
     atom   44 type  1   force =     0.00028424    0.00007463   -0.00000000

     Total force =     0.001656     Total SCF correction =     0.000003


     Computing stress (Cartesian axis) and pressure

          total   stress  (Ry/bohr**3)                   (kbar)     P=        0.13
   0.00000047   0.00000000   0.00000000            0.07        0.00        0.00
   0.00000000   0.00000047   0.00000000            0.00        0.07        0.00
   0.00000000   0.00000000   0.00000164            0.00        0.00        0.24


     Writing all to output data dir ./Na5Al3H14.save/
 
     init_run     :     11.61s CPU     11.97s WALL (       2 calls)
     electrons    :   1669.71s CPU   1704.79s WALL (      12 calls)
     update_pot   :     14.31s CPU     14.45s WALL (      10 calls)
     forces       :     33.32s CPU     33.91s WALL (      12 calls)
     stress       :    215.28s CPU    217.57s WALL (      12 calls)

     Called by init_run:
     wfcinit      :      8.86s CPU      9.07s WALL (       2 calls)
     potinit      :      1.28s CPU      1.30s WALL (       2 calls)
     hinit0       :      1.09s CPU      1.10s WALL (       2 calls)

     Called by electrons:
     c_bands      :   1450.56s CPU   1476.81s WALL (     124 calls)
     sum_band     :    177.12s CPU    181.65s WALL (     124 calls)
     v_of_rho     :      1.66s CPU      1.69s WALL (     133 calls)
     newd         :      6.51s CPU      7.96s WALL (     133 calls)
     PAW_pot      :     39.87s CPU     40.38s WALL (     143 calls)
     mix_rho      :      0.54s CPU      0.55s WALL (     124 calls)

     Called by c_bands:
     init_us_2    :     29.71s CPU     30.29s WALL (   11360 calls)
     init_us_2:cp :     29.61s CPU     30.22s WALL (   11360 calls)
     cegterg      :   1344.97s CPU   1362.81s WALL (    4970 calls)

     Called by *egterg:
     cdiaghg      :    163.70s CPU    164.57s WALL (   20518 calls)
     h_psi        :    814.76s CPU    828.58s WALL (   21128 calls)
     s_psi        :    105.20s CPU    105.98s WALL (   21128 calls)
     g_psi        :      6.46s CPU      6.52s WALL (   16078 calls)

     Called by h_psi:
     h_psi:calbec :    106.79s CPU    107.60s WALL (   21128 calls)
     vloc_psi     :    598.77s CPU    610.93s WALL (   21128 calls)
     add_vuspsi   :    102.55s CPU    103.23s WALL (   21128 calls)

     General routines
     calbec       :    166.87s CPU    168.12s WALL (   28888 calls)
     fft          :      1.01s CPU      1.03s WALL (    1776 calls)
     ffts         :      0.07s CPU      0.07s WALL (     124 calls)
     fftw         :    626.87s CPU    639.06s WALL ( 2680214 calls)
 
     Parallel routines
 
     PWSCF        :  32m34.14s CPU  33m22.48s WALL

 
   This run was terminated on:  16:27:11   3Dec2023            

=------------------------------------------------------------------------------=
   JOB DONE.
=------------------------------------------------------------------------------=
