
     Program PWSCF v.7.1 starts on  3Dec2023 at 16:36:24 

     This program is part of the open-source Quantum ESPRESSO suite
     for quantum simulation of materials; please cite
         "P. Giannozzi et al., J. Phys.:Condens. Matter 21 395502 (2009);
         "P. Giannozzi et al., J. Phys.:Condens. Matter 29 465901 (2017);
         "P. Giannozzi et al., J. Chem. Phys. 152 154105 (2020);
          URL http://www.quantum-espresso.org", 
     in publications or presentations arising from this work. More details at
     http://www.quantum-espresso.org/quote

     Parallel version (MPI & OpenMP), running on      28 processor cores
     Number of MPI processes:                28
     Threads/MPI process:                     1

     MPI processes distributed on     1 nodes
     122407 MiB available memory on the printing compute node when the environment starts
 
     Reading input from NaH_opt.in

     Current dimensions of program PWSCF are:
     Max number of different atomic species (ntypx) = 10
     Max number of k-points (npk) =  40000
     Max angular momentum in pseudopotentials (lmaxx) =  4

     IMPORTANT: XC functional enforced from input :
     Exchange-correlation= PBE
                           (   1   4   3   4   0   0   0)
     Any further DFT definition will be discarded
     Please, verify this is what you really want

     Found identity + (  0.0000 -0.5000 -0.5000) symmetry
     This is a supercell, fractional translations are disabled
     Message from routine setup:
     using ibrav=0 with symmetry is DISCOURAGED, use correct ibrav instead
 
     K-points division:     npool     =       2
     R & G space division:  proc/nbgrp/npool/nimage =      14
     Subspace diagonalization in iterative solution of the eigenvalue problem:
     a serial algorithm will be used

 
     Parallelization info
     --------------------
     sticks:   dense  smooth     PW     G-vecs:    dense   smooth      PW
     Min         128     128     36                 4124     4124     622
     Max         129     129     38                 4128     4128     623
     Sum        1793    1793    509                57777    57777    8709
 
     Using Slab Decomposition
 


     bravais-lattice index     =            0
     lattice parameter (alat)  =       9.0194  a.u.
     unit-cell volume          =     733.7147 (a.u.)^3
     number of atoms/cell      =            8
     number of atomic types    =            2
     number of electrons       =        40.00
     number of Kohn-Sham states=           24
     kinetic-energy cutoff     =      70.0000  Ry
     charge density cutoff     =     280.0000  Ry
     scf convergence threshold =      1.0E-08
     mixing beta               =       0.7000
     number of iterations used =            8  plain     mixing
     energy convergence thresh.=      1.0E-04
     force convergence thresh. =      1.0E-03
     press convergence thresh. =      5.0E-01
     Exchange-correlation= PBE
                           (   1   4   3   4   0   0   0)
     nstep                     =           50


     celldm(1)=   9.019360  celldm(2)=   0.000000  celldm(3)=   0.000000
     celldm(4)=   0.000000  celldm(5)=   0.000000  celldm(6)=   0.000000

     crystal axes: (cart. coord. in units of alat)
               a(1) = (   1.000000   0.000000   0.000000 )  
               a(2) = (   0.000000   1.000000   0.000000 )  
               a(3) = (   0.000000   0.000000   1.000000 )  

     reciprocal axes: (cart. coord. in units 2 pi/alat)
               b(1) = (  1.000000  0.000000  0.000000 )  
               b(2) = (  0.000000  1.000000  0.000000 )  
               b(3) = (  0.000000  0.000000  1.000000 )  


     PseudoPot. # 1 for H  read from file:
     /scratch/antwerpen/209/vsc20922/pseudos/H.pbe-rrkjus_psl.1.0.0.UPF
     MD5 check sum: f52b6d4d1c606e5624b1dc7b2218f220
     Pseudo is Ultrasoft, Zval =  1.0
     Generated using "atomic" code by A. Dal Corso  v.5.1
     Using radial grid of  929 points,  2 beta functions with: 
                l(1) =   0
                l(2) =   0
     Q(r) pseudized with 0 coefficients 


     PseudoPot. # 2 for Na read from file:
     /scratch/antwerpen/209/vsc20922/pseudos/na_pbe_v1.5.uspp.F.UPF
     MD5 check sum: 44600605ef58000f06b90626533354dc
     Pseudo is Ultrasoft, Zval =  9.0
     Generated by new atomic code, or converted to UPF format
     Using radial grid of  819 points,  5 beta functions with: 
                l(1) =   0
                l(2) =   0
                l(3) =   1
                l(4) =   1
                l(5) =   2
     Q(r) pseudized with  8 coefficients,  rinner =    1.250   1.250   1.250
                                                       1.250   1.250

     atomic species   valence    mass     pseudopotential
        H              1.00     1.00750     H ( 1.00)
        Na             9.00    22.98900     Na( 1.00)

     48 Sym. Ops., with inversion, found



   Cartesian axes

     site n.     atom                  positions (alat units)
         1           Na  tau(   1) = (   0.0000000   0.0000000   0.0000000  )
         2           Na  tau(   2) = (   0.0000000   0.5000000   0.5000000  )
         3           Na  tau(   3) = (   0.5000000   0.0000000   0.5000000  )
         4           Na  tau(   4) = (   0.5000000   0.5000000   0.0000000  )
         5           H   tau(   5) = (   0.0000000   0.0000000   0.5000000  )
         6           H   tau(   6) = (   0.0000000   0.5000000   0.0000000  )
         7           H   tau(   7) = (   0.5000000   0.0000000   0.0000000  )
         8           H   tau(   8) = (   0.5000000   0.5000000   0.5000000  )

     number of k points=    20  Marzari-Vanderbilt smearing, width (Ry)=  0.0050
                       cart. coord. in units 2pi/alat
        k(    1) = (   0.0000000   0.0000000   0.0000000), wk =   0.0058309
        k(    2) = (   0.0000000   0.0000000   0.1428571), wk =   0.0349854
        k(    3) = (   0.0000000   0.0000000   0.2857143), wk =   0.0349854
        k(    4) = (   0.0000000   0.0000000   0.4285714), wk =   0.0349854
        k(    5) = (   0.0000000   0.1428571   0.1428571), wk =   0.0699708
        k(    6) = (   0.0000000   0.1428571   0.2857143), wk =   0.1399417
        k(    7) = (   0.0000000   0.1428571   0.4285714), wk =   0.1399417
        k(    8) = (   0.0000000   0.2857143   0.2857143), wk =   0.0699708
        k(    9) = (   0.0000000   0.2857143   0.4285714), wk =   0.1399417
        k(   10) = (   0.0000000   0.4285714   0.4285714), wk =   0.0699708
        k(   11) = (   0.1428571   0.1428571   0.1428571), wk =   0.0466472
        k(   12) = (   0.1428571   0.1428571   0.2857143), wk =   0.1399417
        k(   13) = (   0.1428571   0.1428571   0.4285714), wk =   0.1399417
        k(   14) = (   0.1428571   0.2857143   0.2857143), wk =   0.1399417
        k(   15) = (   0.1428571   0.2857143   0.4285714), wk =   0.2798834
        k(   16) = (   0.1428571   0.4285714   0.4285714), wk =   0.1399417
        k(   17) = (   0.2857143   0.2857143   0.2857143), wk =   0.0466472
        k(   18) = (   0.2857143   0.2857143   0.4285714), wk =   0.1399417
        k(   19) = (   0.2857143   0.4285714   0.4285714), wk =   0.1399417
        k(   20) = (   0.4285714   0.4285714   0.4285714), wk =   0.0466472

     Dense  grid:    57777 G-vectors     FFT dimensions: (  50,  50,  50)

     Estimated max dynamical RAM per process >      12.75 MB

     Estimated total dynamical RAM >     343.03 MB

     Initial potential from superposition of free atoms

     starting charge      39.9748, renormalised to      40.0000
     Starting wfcs are   24 randomized atomic wfcs

     total cpu time spent up to now is        0.6 secs

     Self-consistent Calculation

     iteration #  1     ecut=    70.00 Ry     beta= 0.70
     Davidson diagonalization with overlap
     ethr =  1.00E-02,  avg # of iterations =  3.6

     Threshold (ethr) on eigenvalues was too large:
     Diagonalizing with lowered threshold

     Davidson diagonalization with overlap
     ethr =  9.49E-04,  avg # of iterations =  1.5

     total cpu time spent up to now is        1.1 secs

     total energy              =    -386.10352240 Ry
     estimated scf accuracy    <       0.37289370 Ry

     iteration #  2     ecut=    70.00 Ry     beta= 0.70
     Davidson diagonalization with overlap
     ethr =  9.32E-04,  avg # of iterations =  2.3

     total cpu time spent up to now is        1.4 secs

     total energy              =    -386.16070057 Ry
     estimated scf accuracy    <       0.00605480 Ry

     iteration #  3     ecut=    70.00 Ry     beta= 0.70
     Davidson diagonalization with overlap
     ethr =  1.51E-05,  avg # of iterations =  4.9

     total cpu time spent up to now is        1.8 secs

     total energy              =    -386.16222615 Ry
     estimated scf accuracy    <       0.00035777 Ry

     iteration #  4     ecut=    70.00 Ry     beta= 0.70
     Davidson diagonalization with overlap
     ethr =  8.94E-07,  avg # of iterations =  4.1

     total cpu time spent up to now is        2.2 secs

     total energy              =    -386.16231595 Ry
     estimated scf accuracy    <       0.00003699 Ry

     iteration #  5     ecut=    70.00 Ry     beta= 0.70
     Davidson diagonalization with overlap
     ethr =  9.25E-08,  avg # of iterations =  2.1

     total cpu time spent up to now is        2.5 secs

     total energy              =    -386.16232197 Ry
     estimated scf accuracy    <       0.00000099 Ry

     iteration #  6     ecut=    70.00 Ry     beta= 0.70
     Davidson diagonalization with overlap
     ethr =  2.48E-09,  avg # of iterations =  2.0

     total cpu time spent up to now is        2.7 secs

     total energy              =    -386.16232218 Ry
     estimated scf accuracy    <       0.00000002 Ry

     iteration #  7     ecut=    70.00 Ry     beta= 0.70
     Davidson diagonalization with overlap
     ethr =  4.53E-11,  avg # of iterations =  2.7

     total cpu time spent up to now is        3.1 secs

     End of self-consistent calculation

          k = 0.0000 0.0000 0.0000 (  7153 PWs)   bands (ev):

   -49.3514 -49.3409 -49.3409 -49.3409 -21.3258 -21.3258 -21.3258 -21.2673
   -21.2673 -21.2673 -21.2672 -21.2672 -21.2672 -21.2315 -21.2315 -21.2315
    -2.8980   0.6359   0.6359   0.6359   5.5329   5.5329   5.5329  11.5735

          k = 0.0000 0.0000 0.1429 (  7224 PWs)   bands (ev):

   -49.3509 -49.3414 -49.3409 -49.3409 -21.3229 -21.3229 -21.3217 -21.2702
   -21.2702 -21.2677 -21.2677 -21.2655 -21.2655 -21.2368 -21.2333 -21.2333
    -2.7772   0.3363   0.6694   0.6694   5.6476   5.6476   5.8911  11.2032

          k = 0.0000 0.0000 0.2857 (  7236 PWs)   bands (ev):

   -49.3494 -49.3429 -49.3409 -49.3409 -21.3148 -21.3148 -21.3099 -21.2783
   -21.2783 -21.2687 -21.2687 -21.2605 -21.2605 -21.2512 -21.2382 -21.2382
    -2.4234  -0.3557   0.7470   0.7470   5.9928   5.9929   6.7695   8.4510

          k = 0.0000 0.0000 0.4286 (  7256 PWs)   bands (ev):

   -49.3473 -49.3450 -49.3409 -49.3409 -21.3030 -21.3030 -21.2921 -21.2900
   -21.2900 -21.2711 -21.2696 -21.2696 -21.2533 -21.2533 -21.2454 -21.2454
    -1.8630  -1.1447   0.8117   0.8117   6.5720   6.5720   7.3899   7.3899

          k = 0.0000 0.1429 0.1429 (  7239 PWs)   bands (ev):

   -49.3504 -49.3414 -49.3414 -49.3409 -21.3201 -21.3197 -21.3197 -21.2762
   -21.2683 -21.2683 -21.2655 -21.2655 -21.2645 -21.2443 -21.2351 -21.2323
    -2.6576   0.3865   0.3865   0.6917   5.7625   5.9601   5.9601   8.8058

          k = 0.0000 0.1429 0.2857 (  7248 PWs)   bands (ev):

   -49.3490 -49.3428 -49.3413 -49.3410 -21.3139 -21.3121 -21.3102 -21.2854
   -21.2763 -21.2654 -21.2632 -21.2632 -21.2595 -21.2590 -21.2402 -21.2356
    -2.3074  -0.2782   0.5135   0.7331   6.1083   6.1590   6.7311   7.7468

          k = 0.0000 0.1429 0.4286 (  7247 PWs)   bands (ev):

   -49.3470 -49.3448 -49.3412 -49.3411 -21.3055 -21.3005 -21.2956 -21.2954
   -21.2878 -21.2772 -21.2648 -21.2637 -21.2558 -21.2512 -21.2476 -21.2425
    -1.7539  -1.0476   0.6532   0.7343   6.4835   6.6883   6.9822   7.5074

          k = 0.0000 0.2857 0.2857 (  7259 PWs)   bands (ev):

   -49.3478 -49.3425 -49.3425 -49.3412 -21.3102 -21.3102 -21.3045 -21.2954
   -21.2737 -21.2707 -21.2707 -21.2574 -21.2572 -21.2572 -21.2457 -21.2351
    -1.9689  -0.0656  -0.0656   0.6637   6.4556   6.6165   6.6165   6.9533

          k = 0.0000 0.2857 0.4286 (  7257 PWs)   bands (ev):

   -49.3461 -49.3442 -49.3421 -49.3416 -21.3084 -21.3035 -21.3019 -21.2936
   -21.2891 -21.2816 -21.2626 -21.2551 -21.2548 -21.2537 -21.2476 -21.2395
    -1.4379  -0.7707   0.2216   0.4910   6.4929   6.5446   7.2993   8.1477

          k = 0.0000 0.4286 0.4286 (  7265 PWs)   bands (ev):

   -49.3448 -49.3434 -49.3434 -49.3425 -21.3078 -21.3070 -21.3070 -21.3001
   -21.2837 -21.2726 -21.2726 -21.2627 -21.2485 -21.2461 -21.2461 -21.2405
    -0.9509  -0.3611  -0.3611   0.0968   6.5025   6.8146   6.8146   7.4104

          k = 0.1429 0.1429 0.1429 (  7223 PWs)   bands (ev):

   -49.3499 -49.3414 -49.3414 -49.3414 -21.3180 -21.3180 -21.3180 -21.2731
   -21.2730 -21.2730 -21.2629 -21.2629 -21.2629 -21.2518 -21.2339 -21.2339
    -2.5392   0.4273   0.4273   0.4273   6.0071   6.0071   6.0071   9.0250

          k = 0.1429 0.1429 0.2857 (  7236 PWs)   bands (ev):

   -49.3486 -49.3427 -49.3414 -49.3414 -21.3136 -21.3136 -21.3113 -21.2800
   -21.2800 -21.2668 -21.2647 -21.2614 -21.2613 -21.2584 -21.2384 -21.2364
    -2.1929  -0.2065   0.5231   0.5231   6.1124   6.1124   6.6199   8.1225

          k = 0.1429 0.1429 0.4286 (  7270 PWs)   bands (ev):

   -49.3467 -49.3446 -49.3414 -49.3414 -21.3089 -21.3089 -21.2996 -21.2857
   -21.2857 -21.2839 -21.2610 -21.2610 -21.2539 -21.2520 -21.2448 -21.2436
    -1.6468  -0.9537   0.6044   0.6044   6.1870   6.1870   7.4401   7.6590

          k = 0.1429 0.2857 0.2857 (  7279 PWs)   bands (ev):

   -49.3475 -49.3425 -49.3425 -49.3416 -21.3136 -21.3136 -21.3136 -21.2828
   -21.2817 -21.2689 -21.2689 -21.2563 -21.2561 -21.2561 -21.2422 -21.2362
    -1.8591  -0.0140  -0.0140   0.5190   5.9400   6.3055   6.3055   7.8295

          k = 0.1429 0.2857 0.4286 (  7259 PWs)   bands (ev):

   -49.3459 -49.3441 -49.3422 -49.3419 -21.3151 -21.3147 -21.3080 -21.2967
   -21.2804 -21.2747 -21.2580 -21.2540 -21.2538 -21.2491 -21.2481 -21.2404
    -1.3376  -0.6883   0.2310   0.4304   5.8109   5.9539   6.7985   7.5518

          k = 0.1429 0.4286 0.4286 (  7257 PWs)   bands (ev):

   -49.3447 -49.3434 -49.3434 -49.3426 -21.3174 -21.3150 -21.3150 -21.3083
   -21.2730 -21.2650 -21.2650 -21.2563 -21.2481 -21.2461 -21.2461 -21.2409
    -0.8652  -0.3036  -0.3035   0.1073   5.7889   6.1647   6.1647   6.7410

          k = 0.2857 0.2857 0.2857 (  7250 PWs)   bands (ev):

   -49.3466 -49.3425 -49.3425 -49.3425 -21.3201 -21.3201 -21.3201 -21.2968
   -21.2662 -21.2661 -21.2661 -21.2532 -21.2532 -21.2532 -21.2393 -21.2393
    -1.5411   0.1095   0.1095   0.1095   5.7121   5.7121   5.7121   7.4790

          k = 0.2857 0.2857 0.4286 (  7249 PWs)   bands (ev):

   -49.3452 -49.3438 -49.3425 -49.3425 -21.3246 -21.3246 -21.3191 -21.3107
   -21.2647 -21.2647 -21.2518 -21.2508 -21.2508 -21.2487 -21.2437 -21.2424
    -1.0519  -0.4627   0.2178   0.2178   5.2985   5.2985   5.9579   6.5853

          k = 0.2857 0.4286 0.4286 (  7269 PWs)   bands (ev):

   -49.3443 -49.3434 -49.3433 -49.3429 -21.3294 -21.3274 -21.3274 -21.3222
   -21.2579 -21.2536 -21.2536 -21.2472 -21.2469 -21.2460 -21.2460 -21.2420
    -0.6297  -0.1640  -0.1640   0.0937   5.0491   5.3019   5.3019   5.7752

          k = 0.4286 0.4286 0.4286 (  7268 PWs)   bands (ev):

   -49.3439 -49.3433 -49.3433 -49.3433 -21.3350 -21.3350 -21.3350 -21.3324
   -21.2473 -21.2472 -21.2472 -21.2453 -21.2453 -21.2453 -21.2436 -21.2436
    -0.3147  -0.0395  -0.0395  -0.0395   4.7827   4.7827   4.7827   5.0595

     the Fermi energy is     4.4681 ev

!    total energy              =    -386.16232218 Ry
     estimated scf accuracy    <          2.3E-09 Ry
     smearing contrib. (-TS)   =      -0.00000000 Ry
     internal energy E=F+TS    =    -386.16232218 Ry

     The total energy is F=E-TS. E is the sum of the following terms:
     one-electron contribution =    -312.39781104 Ry
     hartree contribution      =     162.02936548 Ry
     xc contribution           =     -60.36064727 Ry
     ewald contribution        =    -175.43322934 Ry

     convergence has been achieved in   7 iterations

     Forces acting on atoms (cartesian axes, Ry/au):

     atom    1 type  2   force =     0.00000000    0.00000000    0.00000000
     atom    2 type  2   force =     0.00000000    0.00000000    0.00000000
     atom    3 type  2   force =     0.00000000    0.00000000    0.00000000
     atom    4 type  2   force =     0.00000000    0.00000000    0.00000000
     atom    5 type  1   force =     0.00000000    0.00000000    0.00000000
     atom    6 type  1   force =     0.00000000    0.00000000    0.00000000
     atom    7 type  1   force =     0.00000000    0.00000000    0.00000000
     atom    8 type  1   force =     0.00000000    0.00000000    0.00000000

     Total force =     0.000000     Total SCF correction =     0.000000


     Computing stress (Cartesian axis) and pressure

          total   stress  (Ry/bohr**3)                   (kbar)     P=        9.99
   0.00006794   0.00000000   0.00000000            9.99        0.00        0.00
   0.00000000   0.00006794   0.00000000            0.00        9.99        0.00
   0.00000000   0.00000000   0.00006794            0.00        0.00        9.99


     BFGS Geometry Optimization
     Energy error            =      0.0E+00 Ry
     Gradient error          =      0.0E+00 Ry/Bohr
     Cell gradient error     =      1.0E+01 kbar

     number of scf cycles    =   1
     number of bfgs steps    =   0

     enthalpy           new  =    -386.1623221848 Ry

     new trust radius        =       0.0092011114 bohr
     new conv_thr            =       0.0000000100 Ry

     new unit-cell volume =    737.45955 a.u.^3 (   109.28023 Ang^3 )
     density =      1.45853 g/cm^3

CELL_PARAMETERS (alat=  9.01936044)
   1.001698426   0.000000000   0.000000000
   0.000000000   1.001698426   0.000000000
   0.000000000   0.000000000   1.001698426

ATOMIC_POSITIONS (crystal)
Na            0.0000000000        0.0000000000        0.0000000000
Na            0.0000000000        0.5000000000        0.5000000000
Na            0.5000000000        0.0000000000        0.5000000000
Na            0.5000000000        0.5000000000        0.0000000000
H             0.0000000000        0.0000000000        0.5000000000
H             0.0000000000        0.5000000000        0.0000000000
H             0.5000000000        0.0000000000        0.0000000000
H             0.5000000000        0.5000000000        0.5000000000



     Writing config-only to output data dir ./NaH.save/
     NEW-OLD atomic charge density approx. for the potential
     extrapolated charge   40.20299, renormalised to   40.00000

     total cpu time spent up to now is        4.2 secs

     Self-consistent Calculation

     iteration #  1     ecut=    70.00 Ry     beta= 0.70
     Davidson diagonalization with overlap
     ethr =  1.00E-06,  avg # of iterations =  3.0

     total cpu time spent up to now is        4.6 secs

     total energy              =    -386.15695504 Ry
     estimated scf accuracy    <       0.00323844 Ry

     iteration #  2     ecut=    70.00 Ry     beta= 0.70
     Davidson diagonalization with overlap
     ethr =  8.10E-06,  avg # of iterations =  3.0

     total cpu time spent up to now is        5.0 secs

     total energy              =    -386.16267202 Ry
     estimated scf accuracy    <       0.00540117 Ry

     iteration #  3     ecut=    70.00 Ry     beta= 0.70
     Davidson diagonalization with overlap
     ethr =  8.10E-06,  avg # of iterations =  2.0

     total cpu time spent up to now is        5.3 secs

     total energy              =    -386.16255607 Ry
     estimated scf accuracy    <       0.00109395 Ry

     iteration #  4     ecut=    70.00 Ry     beta= 0.70
     Davidson diagonalization with overlap
     ethr =  2.73E-06,  avg # of iterations =  2.6

     total cpu time spent up to now is        5.6 secs

     total energy              =    -386.16269804 Ry
     estimated scf accuracy    <       0.00020946 Ry

     iteration #  5     ecut=    70.00 Ry     beta= 0.70
     Davidson diagonalization with overlap
     ethr =  5.24E-07,  avg # of iterations =  1.0

     total cpu time spent up to now is        5.8 secs

     total energy              =    -386.16268461 Ry
     estimated scf accuracy    <       0.00033163 Ry

     iteration #  6     ecut=    70.00 Ry     beta= 0.70
     Davidson diagonalization with overlap
     ethr =  5.24E-07,  avg # of iterations =  1.0

     total cpu time spent up to now is        6.1 secs

     total energy              =    -386.16248030 Ry
     estimated scf accuracy    <       0.00028614 Ry

     iteration #  7     ecut=    70.00 Ry     beta= 0.70
     Davidson diagonalization with overlap
     ethr =  5.24E-07,  avg # of iterations =  2.0

     total cpu time spent up to now is        6.4 secs

     total energy              =    -386.16255812 Ry
     estimated scf accuracy    <       0.00000430 Ry

     iteration #  8     ecut=    70.00 Ry     beta= 0.70
     Davidson diagonalization with overlap
     ethr =  1.07E-08,  avg # of iterations =  2.0

     total cpu time spent up to now is        6.7 secs

     total energy              =    -386.16255680 Ry
     estimated scf accuracy    <       0.00000696 Ry

     iteration #  9     ecut=    70.00 Ry     beta= 0.70
     Davidson diagonalization with overlap
     ethr =  1.07E-08,  avg # of iterations =  1.0

     total cpu time spent up to now is        7.0 secs

     total energy              =    -386.16255665 Ry
     estimated scf accuracy    <       0.00000360 Ry

     iteration # 10     ecut=    70.00 Ry     beta= 0.70
     Davidson diagonalization with overlap
     ethr =  9.01E-09,  avg # of iterations =  1.0

     total cpu time spent up to now is        7.2 secs

     total energy              =    -386.16255520 Ry
     estimated scf accuracy    <       0.00000287 Ry

     iteration # 11     ecut=    70.00 Ry     beta= 0.70
     Davidson diagonalization with overlap
     ethr =  7.17E-09,  avg # of iterations =  2.0

     total cpu time spent up to now is        7.5 secs

     total energy              =    -386.16255549 Ry
     estimated scf accuracy    <       0.00000027 Ry

     iteration # 12     ecut=    70.00 Ry     beta= 0.70
     Davidson diagonalization with overlap
     ethr =  6.76E-10,  avg # of iterations =  1.9

     total cpu time spent up to now is        7.8 secs

     total energy              =    -386.16255552 Ry
     estimated scf accuracy    <       0.00000021 Ry

     iteration # 13     ecut=    70.00 Ry     beta= 0.70
     Davidson diagonalization with overlap
     ethr =  5.36E-10,  avg # of iterations =  2.0

     total cpu time spent up to now is        8.1 secs

     total energy              =    -386.16255546 Ry
     estimated scf accuracy    <       0.00000024 Ry

     iteration # 14     ecut=    70.00 Ry     beta= 0.70
     Davidson diagonalization with overlap
     ethr =  5.36E-10,  avg # of iterations =  1.4

     total cpu time spent up to now is        8.3 secs

     total energy              =    -386.16255544 Ry
     estimated scf accuracy    <       0.00000006 Ry

     iteration # 15     ecut=    70.00 Ry     beta= 0.70
     Davidson diagonalization with overlap
     ethr =  1.40E-10,  avg # of iterations =  2.0

     total cpu time spent up to now is        8.6 secs

     total energy              =    -386.16255545 Ry
     estimated scf accuracy    <       0.00000002 Ry

     iteration # 16     ecut=    70.00 Ry     beta= 0.70
     Davidson diagonalization with overlap
     ethr =  3.84E-11,  avg # of iterations =  1.0

     total cpu time spent up to now is        8.8 secs

     total energy              =    -386.16255544 Ry
     estimated scf accuracy    <       0.00000002 Ry

     iteration # 17     ecut=    70.00 Ry     beta= 0.70
     Davidson diagonalization with overlap
     ethr =  3.84E-11,  avg # of iterations =  2.0

     total cpu time spent up to now is        9.1 secs

     End of self-consistent calculation

          k = 0.0000 0.0000 0.0000 (  7153 PWs)   bands (ev):

   -49.3851 -49.3748 -49.3748 -49.3748 -21.3585 -21.3585 -21.3585 -21.3009
   -21.3009 -21.3009 -21.3009 -21.3009 -21.3009 -21.2658 -21.2658 -21.2658
    -2.9095   0.6111   0.6111   0.6111   5.4966   5.4966   5.4966  11.5002

          k = 0.0000 0.0000 0.1426 (  7224 PWs)   bands (ev):

   -49.3846 -49.3753 -49.3748 -49.3748 -21.3557 -21.3557 -21.3545 -21.3038
   -21.3038 -21.3014 -21.3014 -21.2992 -21.2992 -21.2710 -21.2675 -21.2675
    -2.7892   0.3126   0.6444   0.6444   5.6110   5.6110   5.8531   9.7064

          k = 0.0000 0.0000 0.2852 (  7236 PWs)   bands (ev):

   -49.3832 -49.3768 -49.3748 -49.3748 -21.3476 -21.3476 -21.3429 -21.3118
   -21.3118 -21.3024 -21.3024 -21.2943 -21.2943 -21.2851 -21.2724 -21.2724
    -2.4369  -0.3770   0.7215   0.7215   5.9555   5.9555   6.7273   8.4080

          k = 0.0000 0.0000 0.4278 (  7256 PWs)   bands (ev):

   -49.3811 -49.3788 -49.3748 -49.3748 -21.3361 -21.3361 -21.3253 -21.3233
   -21.3233 -21.3047 -21.3032 -21.3032 -21.2873 -21.2873 -21.2794 -21.2794
    -1.8786  -1.1631   0.7857   0.7857   6.5334   6.5334   7.3494   7.3494

          k = 0.0000 0.1426 0.1426 (  7239 PWs)   bands (ev):

   -49.3841 -49.3753 -49.3753 -49.3749 -21.3529 -21.3525 -21.3525 -21.3098
   -21.3020 -21.3020 -21.2993 -21.2993 -21.2983 -21.2783 -21.2693 -21.2666
    -2.6701   0.3625   0.3625   0.6665   5.7257   5.9220   5.9220   8.7593

          k = 0.0000 0.1426 0.2852 (  7248 PWs)   bands (ev):

   -49.3827 -49.3767 -49.3752 -49.3749 -21.3468 -21.3450 -21.3431 -21.3188
   -21.3098 -21.2991 -21.2969 -21.2969 -21.2934 -21.2928 -21.2743 -21.2698
    -2.3214  -0.2998   0.4888   0.7075   6.0707   6.1204   6.6889   7.7030

          k = 0.0000 0.1426 0.4278 (  7247 PWs)   bands (ev):

   -49.3808 -49.3786 -49.3751 -49.3750 -21.3385 -21.3337 -21.3288 -21.3285
   -21.3211 -21.3107 -21.2985 -21.2975 -21.2897 -21.2852 -21.2816 -21.2766
    -1.7700  -1.0663   0.6278   0.7085   6.4438   6.6494   6.9409   7.4665

          k = 0.0000 0.2852 0.2852 (  7259 PWs)   bands (ev):

   -49.3816 -49.3764 -49.3764 -49.3752 -21.3431 -21.3431 -21.3376 -21.3286
   -21.3072 -21.3043 -21.3043 -21.2913 -21.2911 -21.2911 -21.2798 -21.2693
    -1.9843  -0.0882  -0.0882   0.6382   6.4173   6.5744   6.5744   6.9110

          k = 0.0000 0.2852 0.4278 (  7257 PWs)   bands (ev):

   -49.3799 -49.3780 -49.3760 -49.3756 -21.3413 -21.3365 -21.3350 -21.3269
   -21.3224 -21.3150 -21.2964 -21.2890 -21.2887 -21.2877 -21.2816 -21.2736
    -1.4553  -0.7907   0.1977   0.4660   6.4513   6.5031   6.9985   7.2529

          k = 0.0000 0.4278 0.4278 (  7265 PWs)   bands (ev):

   -49.3786 -49.3772 -49.3772 -49.3764 -21.3407 -21.3399 -21.3399 -21.3332
   -21.3171 -21.3062 -21.3062 -21.2964 -21.2825 -21.2802 -21.2802 -21.2747
    -0.9703  -0.3828  -0.3828   0.0733   6.4600   6.7703   6.7703   7.3628

          k = 0.1426 0.1426 0.1426 (  7223 PWs)   bands (ev):

   -49.3836 -49.3753 -49.3753 -49.3753 -21.3508 -21.3508 -21.3508 -21.3066
   -21.3066 -21.3066 -21.2967 -21.2967 -21.2967 -21.2857 -21.2682 -21.2682
    -2.5522   0.4031   0.4031   0.4031   5.9688   5.9688   5.9688   8.9784

          k = 0.1426 0.1426 0.2852 (  7236 PWs)   bands (ev):

   -49.3824 -49.3766 -49.3753 -49.3753 -21.3465 -21.3465 -21.3442 -21.3134
   -21.3134 -21.3004 -21.2984 -21.2951 -21.2951 -21.2923 -21.2725 -21.2706
    -2.2073  -0.2285   0.4982   0.4982   6.0738   6.0738   6.5781   8.0785

          k = 0.1426 0.1426 0.4278 (  7270 PWs)   bands (ev):

   -49.3805 -49.3784 -49.3753 -49.3753 -21.3419 -21.3419 -21.3327 -21.3191
   -21.3191 -21.3173 -21.2948 -21.2948 -21.2878 -21.2859 -21.2789 -21.2777
    -1.6634  -0.9729   0.5791   0.5791   6.1481   6.1481   7.3936   7.6169

          k = 0.1426 0.2852 0.2852 (  7279 PWs)   bands (ev):

   -49.3813 -49.3764 -49.3764 -49.3755 -21.3465 -21.3465 -21.3465 -21.3162
   -21.3151 -21.3025 -21.3025 -21.2902 -21.2899 -21.2899 -21.2763 -21.2704
    -1.8749  -0.0369  -0.0369   0.4939   5.9017   6.2648   6.2648   7.7858

          k = 0.1426 0.2852 0.4278 (  7259 PWs)   bands (ev):

   -49.3797 -49.3779 -49.3761 -49.3758 -21.3479 -21.3476 -21.3410 -21.3299
   -21.3139 -21.3083 -21.2918 -21.2879 -21.2877 -21.2831 -21.2821 -21.2745
    -1.3555  -0.7086   0.2070   0.4056   5.7727   5.9147   6.7549   7.5045

          k = 0.1426 0.4278 0.4278 (  7257 PWs)   bands (ev):

   -49.3785 -49.3772 -49.3772 -49.3765 -21.3502 -21.3478 -21.3478 -21.3413
   -21.3066 -21.2987 -21.2987 -21.2901 -21.2821 -21.2801 -21.2801 -21.2750
    -0.8850  -0.3255  -0.3255   0.0836   5.7501   6.1239   6.1239   6.6974

          k = 0.2852 0.2852 0.2852 (  7250 PWs)   bands (ev):

   -49.3804 -49.3764 -49.3764 -49.3764 -21.3529 -21.3529 -21.3529 -21.3300
   -21.2999 -21.2999 -21.2999 -21.2871 -21.2871 -21.2871 -21.2734 -21.2734
    -1.5582   0.0860   0.0860   0.0860   5.6737   5.6737   5.6737   7.4323

          k = 0.2852 0.2852 0.4278 (  7249 PWs)   bands (ev):

   -49.3791 -49.3776 -49.3764 -49.3764 -21.3573 -21.3573 -21.3519 -21.3436
   -21.2985 -21.2985 -21.2858 -21.2847 -21.2847 -21.2827 -21.2778 -21.2765
    -1.0710  -0.4841   0.1936   0.1936   5.2617   5.2617   5.9180   6.5425

          k = 0.2852 0.4278 0.4278 (  7269 PWs)   bands (ev):

   -49.3782 -49.3772 -49.3772 -49.3768 -21.3620 -21.3600 -21.3600 -21.3549
   -21.2917 -21.2875 -21.2875 -21.2813 -21.2810 -21.2800 -21.2800 -21.2761
    -0.6506  -0.1868  -0.1868   0.0698   5.0131   5.2647   5.2647   5.7359

          k = 0.4278 0.4278 0.4278 (  7268 PWs)   bands (ev):

   -49.3777 -49.3772 -49.3772 -49.3772 -21.3675 -21.3675 -21.3675 -21.3649
   -21.2813 -21.2813 -21.2813 -21.2794 -21.2794 -21.2794 -21.2776 -21.2776
    -0.3370  -0.0631  -0.0631  -0.0631   4.7476   4.7476   4.7476   5.0231

     the Fermi energy is     4.3998 ev

!    total energy              =    -386.16255544 Ry
     estimated scf accuracy    <          1.2E-09 Ry
     smearing contrib. (-TS)   =      -0.00000000 Ry
     internal energy E=F+TS    =    -386.16255544 Ry

     The total energy is F=E-TS. E is the sum of the following terms:
     one-electron contribution =    -312.90422947 Ry
     hartree contribution      =     162.23217604 Ry
     xc contribution           =     -60.35472786 Ry
     ewald contribution        =    -175.13577416 Ry

     convergence has been achieved in  17 iterations

     Forces acting on atoms (cartesian axes, Ry/au):

     atom    1 type  2   force =     0.00000000    0.00000000    0.00000000
     atom    2 type  2   force =     0.00000000    0.00000000    0.00000000
     atom    3 type  2   force =     0.00000000    0.00000000    0.00000000
     atom    4 type  2   force =     0.00000000    0.00000000    0.00000000
     atom    5 type  1   force =     0.00000000    0.00000000    0.00000000
     atom    6 type  1   force =     0.00000000    0.00000000    0.00000000
     atom    7 type  1   force =     0.00000000    0.00000000    0.00000000
     atom    8 type  1   force =     0.00000000    0.00000000    0.00000000

     Total force =     0.000000     Total SCF correction =     0.000000


     Computing stress (Cartesian axis) and pressure

          total   stress  (Ry/bohr**3)                   (kbar)     P=        8.41
   0.00005717   0.00000000   0.00000000            8.41        0.00        0.00
   0.00000000   0.00005717   0.00000000            0.00        8.41        0.00
   0.00000000   0.00000000   0.00005717            0.00        0.00        8.41

     Energy error            =      2.3E-04 Ry
     Gradient error          =      0.0E+00 Ry/Bohr
     Cell gradient error     =      8.4E+00 kbar

     number of scf cycles    =   2
     number of bfgs steps    =   1

     enthalpy           old  =    -386.1623221848 Ry
     enthalpy           new  =    -386.1625554419 Ry

     CASE: enthalpy          _new < enthalpy          _old


     WARNING: bfgs curvature condition failed, Theta= 0.948
     new trust radius        =       0.0101298139 bohr
     new conv_thr            =            1.0E-10 Ry

     new unit-cell volume =    741.59356 a.u.^3 (   109.89283 Ang^3 )
     density =      1.45040 g/cm^3

CELL_PARAMETERS (alat=  9.01936044)
   1.003566695   0.000000000   0.000000000
   0.000000000   1.003566695   0.000000000
   0.000000000   0.000000000   1.003566695

ATOMIC_POSITIONS (crystal)
Na            0.0000000000        0.0000000000        0.0000000000
Na            0.0000000000        0.5000000000        0.5000000000
Na            0.5000000000        0.0000000000        0.5000000000
Na            0.5000000000        0.5000000000        0.0000000000
H             0.0000000000        0.0000000000        0.5000000000
H             0.0000000000        0.5000000000        0.0000000000
H             0.5000000000        0.0000000000        0.0000000000
H             0.5000000000        0.5000000000        0.5000000000



     Writing config-only to output data dir ./NaH.save/
     NEW-OLD atomic charge density approx. for the potential
     extrapolated charge   40.22284, renormalised to   40.00000

     total cpu time spent up to now is       10.0 secs

     Self-consistent Calculation

     iteration #  1     ecut=    70.00 Ry     beta= 0.70
     Davidson diagonalization with overlap
     ethr =  1.00E-06,  avg # of iterations =  3.4

     total cpu time spent up to now is       10.3 secs

     total energy              =    -386.15601407 Ry
     estimated scf accuracy    <       0.00390492 Ry

     iteration #  2     ecut=    70.00 Ry     beta= 0.70
     Davidson diagonalization with overlap
     ethr =  9.76E-06,  avg # of iterations =  3.0

     total cpu time spent up to now is       10.7 secs

     total energy              =    -386.16291669 Ry
     estimated scf accuracy    <       0.00651708 Ry

     iteration #  3     ecut=    70.00 Ry     beta= 0.70
     Davidson diagonalization with overlap
     ethr =  9.76E-06,  avg # of iterations =  2.0

     total cpu time spent up to now is       11.0 secs

     total energy              =    -386.16278227 Ry
     estimated scf accuracy    <       0.00132350 Ry

     iteration #  4     ecut=    70.00 Ry     beta= 0.70
     Davidson diagonalization with overlap
     ethr =  3.31E-06,  avg # of iterations =  1.5

     total cpu time spent up to now is       11.3 secs

     total energy              =    -386.16294186 Ry
     estimated scf accuracy    <       0.00026467 Ry

     iteration #  5     ecut=    70.00 Ry     beta= 0.70
     Davidson diagonalization with overlap
     ethr =  6.62E-07,  avg # of iterations =  1.0

     total cpu time spent up to now is       11.5 secs

     total energy              =    -386.16285498 Ry
     estimated scf accuracy    <       0.00039597 Ry

     iteration #  6     ecut=    70.00 Ry     beta= 0.70
     Davidson diagonalization with overlap
     ethr =  6.62E-07,  avg # of iterations =  1.0

     total cpu time spent up to now is       11.8 secs

     total energy              =    -386.16272061 Ry
     estimated scf accuracy    <       0.00020107 Ry

     iteration #  7     ecut=    70.00 Ry     beta= 0.70
     Davidson diagonalization with overlap
     ethr =  5.03E-07,  avg # of iterations =  2.0

     total cpu time spent up to now is       12.1 secs

     total energy              =    -386.16277639 Ry
     estimated scf accuracy    <       0.00000391 Ry

     iteration #  8     ecut=    70.00 Ry     beta= 0.70
     Davidson diagonalization with overlap
     ethr =  9.78E-09,  avg # of iterations =  2.6

     total cpu time spent up to now is       12.4 secs

     total energy              =    -386.16277581 Ry
     estimated scf accuracy    <       0.00000906 Ry

     iteration #  9     ecut=    70.00 Ry     beta= 0.70
     Davidson diagonalization with overlap
     ethr =  9.78E-09,  avg # of iterations =  1.0

     total cpu time spent up to now is       12.6 secs

     total energy              =    -386.16277558 Ry
     estimated scf accuracy    <       0.00000606 Ry

     iteration # 10     ecut=    70.00 Ry     beta= 0.70
     Davidson diagonalization with overlap
     ethr =  9.78E-09,  avg # of iterations =  1.0

     total cpu time spent up to now is       12.9 secs

     total energy              =    -386.16277256 Ry
     estimated scf accuracy    <       0.00000532 Ry

     iteration # 11     ecut=    70.00 Ry     beta= 0.70
     Davidson diagonalization with overlap
     ethr =  9.78E-09,  avg # of iterations =  2.0

     total cpu time spent up to now is       13.2 secs

     total energy              =    -386.16277342 Ry
     estimated scf accuracy    <       0.00000017 Ry

     iteration # 12     ecut=    70.00 Ry     beta= 0.70
     Davidson diagonalization with overlap
     ethr =  4.18E-10,  avg # of iterations =  1.5

     total cpu time spent up to now is       13.4 secs

     total energy              =    -386.16277389 Ry
     estimated scf accuracy    <       0.00000022 Ry

     iteration # 13     ecut=    70.00 Ry     beta= 0.70
     Davidson diagonalization with overlap
     ethr =  4.18E-10,  avg # of iterations =  3.0

     total cpu time spent up to now is       13.8 secs

     total energy              =    -386.16277320 Ry
     estimated scf accuracy    <       0.00000172 Ry

     iteration # 14     ecut=    70.00 Ry     beta= 0.70
     Davidson diagonalization with overlap
     ethr =  4.18E-10,  avg # of iterations =  3.0

     total cpu time spent up to now is       14.1 secs

     total energy              =    -386.16277336 Ry
     estimated scf accuracy    <       0.00000006 Ry

     iteration # 15     ecut=    70.00 Ry     beta= 0.70
     Davidson diagonalization with overlap
     ethr =  1.56E-10,  avg # of iterations =  1.1

     total cpu time spent up to now is       14.4 secs

     total energy              =    -386.16277336 Ry
     estimated scf accuracy    <       0.00000006 Ry

     iteration # 16     ecut=    70.00 Ry     beta= 0.70
     Davidson diagonalization with overlap
     ethr =  1.44E-10,  avg # of iterations =  1.0

     total cpu time spent up to now is       14.6 secs

     total energy              =    -386.16277335 Ry
     estimated scf accuracy    <       0.00000004 Ry

     iteration # 17     ecut=    70.00 Ry     beta= 0.70
     Davidson diagonalization with overlap
     ethr =  9.49E-11,  avg # of iterations =  2.0

     total cpu time spent up to now is       14.9 secs

     total energy              =    -386.16277334 Ry
     estimated scf accuracy    <       0.00000003 Ry

     iteration # 18     ecut=    70.00 Ry     beta= 0.70
     Davidson diagonalization with overlap
     ethr =  7.96E-11,  avg # of iterations =  2.0

     total cpu time spent up to now is       15.2 secs

     total energy              =    -386.16277334 Ry
     estimated scf accuracy    <          6.8E-09 Ry

     iteration # 19     ecut=    70.00 Ry     beta= 0.70
     Davidson diagonalization with overlap
     ethr =  1.69E-11,  avg # of iterations =  2.0

     total cpu time spent up to now is       15.5 secs

     total energy              =    -386.16277334 Ry
     estimated scf accuracy    <          7.1E-10 Ry

     iteration # 20     ecut=    70.00 Ry     beta= 0.70
     Davidson diagonalization with overlap
     ethr =  1.77E-12,  avg # of iterations =  2.0

     total cpu time spent up to now is       15.8 secs

     End of self-consistent calculation

          k = 0.0000 0.0000 0.0000 (  7153 PWs)   bands (ev):

   -49.4224 -49.4124 -49.4124 -49.4124 -21.3947 -21.3947 -21.3947 -21.3382
   -21.3382 -21.3382 -21.3382 -21.3382 -21.3382 -21.3037 -21.3037 -21.3037
    -2.9220   0.5839   0.5839   0.5839   5.4569   5.4569   5.4569  10.9068

          k = 0.0000 0.0000 0.1423 (  7224 PWs)   bands (ev):

   -49.4219 -49.4128 -49.4124 -49.4124 -21.3919 -21.3919 -21.3907 -21.3410
   -21.3410 -21.3387 -21.3387 -21.3365 -21.3365 -21.3088 -21.3054 -21.3054
    -2.8023   0.2867   0.6170   0.6170   5.5711   5.5711   5.8116   9.6560

          k = 0.0000 0.0000 0.2847 (  7236 PWs)   bands (ev):

   -49.4205 -49.4142 -49.4123 -49.4123 -21.3840 -21.3840 -21.3793 -21.3488
   -21.3488 -21.3396 -21.3396 -21.3317 -21.3317 -21.3226 -21.3102 -21.3102
    -2.4516  -0.4002   0.6935   0.6935   5.9147   5.9147   6.6810   8.3608

          k = 0.0000 0.0000 0.4270 (  7256 PWs)   bands (ev):

   -49.4185 -49.4162 -49.4123 -49.4123 -21.3727 -21.3727 -21.3621 -21.3601
   -21.3601 -21.3418 -21.3404 -21.3404 -21.3248 -21.3248 -21.3171 -21.3171
    -1.8957  -1.1832   0.7573   0.7573   6.4911   6.4911   7.3050   7.3050

          k = 0.0000 0.1423 0.1423 (  7239 PWs)   bands (ev):

   -49.4214 -49.4128 -49.4128 -49.4124 -21.3891 -21.3887 -21.3887 -21.3468
   -21.3392 -21.3392 -21.3365 -21.3365 -21.3356 -21.3160 -21.3071 -21.3045
    -2.6837   0.3363   0.3363   0.6389   5.6854   5.8803   5.8803   8.7084

          k = 0.0000 0.1423 0.2847 (  7248 PWs)   bands (ev):

   -49.4201 -49.4141 -49.4127 -49.4124 -21.3832 -21.3814 -21.3796 -21.3557
   -21.3469 -21.3364 -21.3343 -21.3343 -21.3307 -21.3302 -21.3121 -21.3076
    -2.3366  -0.3234   0.4618   0.6795   6.0296   6.0781   6.6427   7.6551

          k = 0.0000 0.1423 0.4270 (  7247 PWs)   bands (ev):

   -49.4181 -49.4160 -49.4126 -49.4125 -21.3750 -21.3703 -21.3655 -21.3652
   -21.3580 -21.3477 -21.3358 -21.3348 -21.3271 -21.3227 -21.3192 -21.3143
    -1.7876  -1.0869   0.6000   0.6804   6.4004   6.6068   6.8957   7.4218

          k = 0.0000 0.2847 0.2847 (  7259 PWs)   bands (ev):

   -49.4189 -49.4139 -49.4139 -49.4127 -21.3796 -21.3796 -21.3741 -21.3653
   -21.3443 -21.3415 -21.3415 -21.3287 -21.3285 -21.3285 -21.3174 -21.3072
    -2.0010  -0.1128  -0.1128   0.6103   6.3753   6.5284   6.5284   6.8646

          k = 0.0000 0.2847 0.4270 (  7257 PWs)   bands (ev):

   -49.4173 -49.4155 -49.4135 -49.4131 -21.3778 -21.3731 -21.3715 -21.3636
   -21.3592 -21.3520 -21.3337 -21.3265 -21.3262 -21.3251 -21.3192 -21.3114
    -1.4743  -0.8125   0.1716   0.4387   6.4057   6.4576   6.9550   7.2022

          k = 0.0000 0.4270 0.4270 (  7265 PWs)   bands (ev):

   -49.4161 -49.4147 -49.4147 -49.4138 -21.3772 -21.3764 -21.3764 -21.3698
   -21.3540 -21.3433 -21.3433 -21.3338 -21.3201 -21.3178 -21.3178 -21.3124
    -0.9915  -0.4065  -0.4065   0.0476   6.4135   6.7218   6.7218   7.3107

          k = 0.1423 0.1423 0.1423 (  7223 PWs)   bands (ev):

   -49.4209 -49.4128 -49.4128 -49.4128 -21.3871 -21.3871 -21.3871 -21.3438
   -21.3438 -21.3438 -21.3340 -21.3340 -21.3340 -21.3232 -21.3060 -21.3060
    -2.5664   0.3766   0.3766   0.3766   5.9270   5.9270   5.9270   8.9274

          k = 0.1423 0.1423 0.2847 (  7236 PWs)   bands (ev):

   -49.4197 -49.4141 -49.4128 -49.4128 -21.3829 -21.3829 -21.3806 -21.3504
   -21.3504 -21.3377 -21.3357 -21.3325 -21.3325 -21.3297 -21.3103 -21.3084
    -2.2230  -0.2524   0.4711   0.4711   6.0316   6.0316   6.5323   8.0303

          k = 0.1423 0.1423 0.4270 (  7270 PWs)   bands (ev):

   -49.4179 -49.4159 -49.4128 -49.4128 -21.3784 -21.3784 -21.3693 -21.3560
   -21.3560 -21.3542 -21.3322 -21.3322 -21.3253 -21.3234 -21.3165 -21.3154
    -1.6815  -0.9938   0.5514   0.5514   6.1055   6.1055   7.3427   7.5708

          k = 0.1423 0.2847 0.2847 (  7279 PWs)   bands (ev):

   -49.4186 -49.4139 -49.4139 -49.4130 -21.3829 -21.3828 -21.3828 -21.3532
   -21.3520 -21.3398 -21.3398 -21.3276 -21.3274 -21.3274 -21.3140 -21.3082
    -1.8921  -0.0619  -0.0619   0.4665   5.8599   6.2202   6.2202   7.7381

          k = 0.1423 0.2847 0.4270 (  7259 PWs)   bands (ev):

   -49.4171 -49.4154 -49.4136 -49.4133 -21.3842 -21.3839 -21.3775 -21.3665
   -21.3509 -21.3454 -21.3292 -21.3254 -21.3252 -21.3206 -21.3197 -21.3122
    -1.3750  -0.7309   0.1808   0.3784   5.7309   5.8718   6.7072   7.4527

          k = 0.1423 0.4270 0.4270 (  7257 PWs)   bands (ev):

   -49.4159 -49.4147 -49.4147 -49.4139 -21.3865 -21.3841 -21.3841 -21.3777
   -21.3437 -21.3360 -21.3360 -21.3276 -21.3197 -21.3178 -21.3178 -21.3128
    -0.9066  -0.3496  -0.3496   0.0577   5.7076   6.0793   6.0793   6.6497

          k = 0.2847 0.2847 0.2847 (  7250 PWs)   bands (ev):

   -49.4177 -49.4139 -49.4139 -49.4139 -21.3891 -21.3891 -21.3891 -21.3666
   -21.3371 -21.3371 -21.3371 -21.3246 -21.3246 -21.3246 -21.3112 -21.3112
    -1.5769   0.0602   0.0602   0.0602   5.6317   5.6317   5.6317   7.3812

          k = 0.2847 0.2847 0.4270 (  7249 PWs)   bands (ev):

   -49.4165 -49.4151 -49.4138 -49.4138 -21.3934 -21.3934 -21.3881 -21.3800
   -21.3357 -21.3357 -21.3233 -21.3223 -21.3223 -21.3203 -21.3155 -21.3141
    -1.0918  -0.5075   0.1671   0.1671   5.2215   5.2215   5.8743   6.4957

          k = 0.2847 0.4270 0.4270 (  7269 PWs)   bands (ev):

   -49.4156 -49.4147 -49.4147 -49.4142 -21.3981 -21.3961 -21.3961 -21.3911
   -21.3291 -21.3250 -21.3250 -21.3189 -21.3186 -21.3176 -21.3176 -21.3138
    -0.6734  -0.2117  -0.2117   0.0437   4.9737   5.2240   5.2240   5.6928

          k = 0.4270 0.4270 0.4270 (  7268 PWs)   bands (ev):

   -49.4152 -49.4147 -49.4147 -49.4147 -21.4035 -21.4035 -21.4035 -21.4009
   -21.3189 -21.3189 -21.3189 -21.3170 -21.3170 -21.3170 -21.3153 -21.3153
    -0.3614  -0.0888  -0.0888  -0.0888   4.7091   4.7091   4.7091   4.9833

     the Fermi energy is     3.8759 ev

!    total energy              =    -386.16277334 Ry
     estimated scf accuracy    <          2.8E-11 Ry
     smearing contrib. (-TS)   =      -0.00000000 Ry
     internal energy E=F+TS    =    -386.16277334 Ry

     The total energy is F=E-TS. E is the sum of the following terms:
     one-electron contribution =    -313.46001768 Ry
     hartree contribution      =     162.45538260 Ry
     xc contribution           =     -60.34840193 Ry
     ewald contribution        =    -174.80973633 Ry

     convergence has been achieved in  20 iterations

     Forces acting on atoms (cartesian axes, Ry/au):

     atom    1 type  2   force =     0.00000000    0.00000000    0.00000000
     atom    2 type  2   force =     0.00000000    0.00000000    0.00000000
     atom    3 type  2   force =     0.00000000    0.00000000    0.00000000
     atom    4 type  2   force =     0.00000000    0.00000000    0.00000000
     atom    5 type  1   force =     0.00000000    0.00000000    0.00000000
     atom    6 type  1   force =     0.00000000    0.00000000    0.00000000
     atom    7 type  1   force =     0.00000000    0.00000000    0.00000000
     atom    8 type  1   force =     0.00000000    0.00000000    0.00000000

     Total force =     0.000000     Total SCF correction =     0.000000


     Computing stress (Cartesian axis) and pressure

          total   stress  (Ry/bohr**3)                   (kbar)     P=        7.05
   0.00004791   0.00000000   0.00000000            7.05        0.00        0.00
   0.00000000   0.00004791   0.00000000            0.00        7.05        0.00
   0.00000000   0.00000000   0.00004791            0.00        0.00        7.05

     Energy error            =      2.2E-04 Ry
     Gradient error          =      0.0E+00 Ry/Bohr
     Cell gradient error     =      7.0E+00 kbar

     number of scf cycles    =   3
     number of bfgs steps    =   2

     enthalpy           old  =    -386.1625554419 Ry
     enthalpy           new  =    -386.1627733439 Ry

     CASE: enthalpy          _new < enthalpy          _old

     new trust radius        =       0.0152088841 bohr
     new conv_thr            =            1.0E-10 Ry

     new unit-cell volume =    747.82350 a.u.^3 (   110.81601 Ang^3 )
     density =      1.43832 g/cm^3

CELL_PARAMETERS (alat=  9.01936044)
   1.006369098   0.000000000   0.000000000
   0.000000000   1.006369098   0.000000000
   0.000000000   0.000000000   1.006369098

ATOMIC_POSITIONS (crystal)
Na            0.0000000000        0.0000000000        0.0000000000
Na            0.0000000000        0.5000000000        0.5000000000
Na            0.5000000000        0.0000000000        0.5000000000
Na            0.5000000000        0.5000000000        0.0000000000
H             0.0000000000        0.0000000000        0.5000000000
H             0.0000000000        0.5000000000        0.0000000000
H             0.5000000000        0.0000000000        0.0000000000
H             0.5000000000        0.5000000000        0.5000000000



     Writing config-only to output data dir ./NaH.save/
     NEW-OLD atomic charge density approx. for the potential
     extrapolated charge   40.33302, renormalised to   40.00000

     total cpu time spent up to now is       16.6 secs

     Self-consistent Calculation

     iteration #  1     ecut=    70.00 Ry     beta= 0.70
     Davidson diagonalization with overlap
     ethr =  1.00E-06,  avg # of iterations =  3.6

     total cpu time spent up to now is       17.0 secs

     total energy              =    -386.14784739 Ry
     estimated scf accuracy    <       0.00876724 Ry

     iteration #  2     ecut=    70.00 Ry     beta= 0.70
     Davidson diagonalization with overlap
     ethr =  2.19E-05,  avg # of iterations =  3.0

     total cpu time spent up to now is       17.4 secs

     total energy              =    -386.16336152 Ry
     estimated scf accuracy    <       0.01462702 Ry

     iteration #  3     ecut=    70.00 Ry     beta= 0.70
     Davidson diagonalization with overlap
     ethr =  2.19E-05,  avg # of iterations =  2.0

     total cpu time spent up to now is       17.7 secs

     total energy              =    -386.16306184 Ry
     estimated scf accuracy    <       0.00298530 Ry

     iteration #  4     ecut=    70.00 Ry     beta= 0.70
     Davidson diagonalization with overlap
     ethr =  7.46E-06,  avg # of iterations =  1.2

     total cpu time spent up to now is       17.9 secs

     total energy              =    -386.16341394 Ry
     estimated scf accuracy    <       0.00061809 Ry

     iteration #  5     ecut=    70.00 Ry     beta= 0.70
     Davidson diagonalization with overlap
     ethr =  1.55E-06,  avg # of iterations =  1.0

     total cpu time spent up to now is       18.2 secs

     total energy              =    -386.16322450 Ry
     estimated scf accuracy    <       0.00091292 Ry

     iteration #  6     ecut=    70.00 Ry     beta= 0.70
     Davidson diagonalization with overlap
     ethr =  1.55E-06,  avg # of iterations =  1.0

     total cpu time spent up to now is       18.4 secs

     total energy              =    -386.16289955 Ry
     estimated scf accuracy    <       0.00048274 Ry

     iteration #  7     ecut=    70.00 Ry     beta= 0.70
     Davidson diagonalization with overlap
     ethr =  1.21E-06,  avg # of iterations =  2.0

     total cpu time spent up to now is       18.7 secs

     total energy              =    -386.16303266 Ry
     estimated scf accuracy    <       0.00000928 Ry

     iteration #  8     ecut=    70.00 Ry     beta= 0.70
     Davidson diagonalization with overlap
     ethr =  2.32E-08,  avg # of iterations =  2.5

     total cpu time spent up to now is       19.0 secs

     total energy              =    -386.16303104 Ry
     estimated scf accuracy    <       0.00002125 Ry

     iteration #  9     ecut=    70.00 Ry     beta= 0.70
     Davidson diagonalization with overlap
     ethr =  2.32E-08,  avg # of iterations =  1.0

     total cpu time spent up to now is       19.3 secs

     total energy              =    -386.16302887 Ry
     estimated scf accuracy    <       0.00001376 Ry

     iteration # 10     ecut=    70.00 Ry     beta= 0.70
     Davidson diagonalization with overlap
     ethr =  2.32E-08,  avg # of iterations =  1.0

     total cpu time spent up to now is       19.5 secs

     total energy              =    -386.16302420 Ry
     estimated scf accuracy    <       0.00000845 Ry

     iteration # 11     ecut=    70.00 Ry     beta= 0.70
     Davidson diagonalization with overlap
     ethr =  2.11E-08,  avg # of iterations =  2.0

     total cpu time spent up to now is       19.8 secs

     total energy              =    -386.16302563 Ry
     estimated scf accuracy    <       0.00000013 Ry

     iteration # 12     ecut=    70.00 Ry     beta= 0.70
     Davidson diagonalization with overlap
     ethr =  3.33E-10,  avg # of iterations =  2.0

     total cpu time spent up to now is       20.1 secs

     total energy              =    -386.16302561 Ry
     estimated scf accuracy    <       0.00000029 Ry

     iteration # 13     ecut=    70.00 Ry     beta= 0.70
     Davidson diagonalization with overlap
     ethr =  3.33E-10,  avg # of iterations =  1.0

     total cpu time spent up to now is       20.4 secs

     total energy              =    -386.16302555 Ry
     estimated scf accuracy    <       0.00000020 Ry

     iteration # 14     ecut=    70.00 Ry     beta= 0.70
     Davidson diagonalization with overlap
     ethr =  3.33E-10,  avg # of iterations =  2.0

     total cpu time spent up to now is       20.6 secs

     total energy              =    -386.16302553 Ry
     estimated scf accuracy    <       0.00000005 Ry

     iteration # 15     ecut=    70.00 Ry     beta= 0.70
     Davidson diagonalization with overlap
     ethr =  1.30E-10,  avg # of iterations =  2.0

     total cpu time spent up to now is       20.9 secs

     total energy              =    -386.16302554 Ry
     estimated scf accuracy    <          5.7E-09 Ry

     iteration # 16     ecut=    70.00 Ry     beta= 0.70
     Davidson diagonalization with overlap
     ethr =  1.41E-11,  avg # of iterations =  2.0

     total cpu time spent up to now is       21.2 secs

     total energy              =    -386.16302554 Ry
     estimated scf accuracy    <          1.3E-09 Ry

     iteration # 17     ecut=    70.00 Ry     beta= 0.70
     Davidson diagonalization with overlap
     ethr =  3.23E-12,  avg # of iterations =  2.0

     total cpu time spent up to now is       21.5 secs

     End of self-consistent calculation

          k = 0.0000 0.0000 0.0000 (  7153 PWs)   bands (ev):

   -49.4778 -49.4681 -49.4681 -49.4681 -21.4485 -21.4485 -21.4485 -21.3936
   -21.3936 -21.3936 -21.3936 -21.3936 -21.3936 -21.3600 -21.3600 -21.3600
    -2.9404   0.5438   0.5438   0.5438   5.3980   5.3980   5.3980  10.8334

          k = 0.0000 0.0000 0.1420 (  7224 PWs)   bands (ev):

   -49.4773 -49.4686 -49.4681 -49.4681 -21.4457 -21.4457 -21.4446 -21.3963
   -21.3963 -21.3940 -21.3940 -21.3919 -21.3919 -21.3649 -21.3616 -21.3616
    -2.8215   0.2483   0.5765   0.5765   5.5118   5.5118   5.7500   9.5811

          k = 0.0000 0.0000 0.2839 (  7236 PWs)   bands (ev):

   -49.4759 -49.4699 -49.4681 -49.4681 -21.4381 -21.4381 -21.4335 -21.4039
   -21.4039 -21.3949 -21.3949 -21.3872 -21.3872 -21.3784 -21.3663 -21.3663
    -2.4732  -0.4345   0.6522   0.6522   5.8542   5.8542   6.6124   8.2908

          k = 0.0000 0.0000 0.4259 (  7256 PWs)   bands (ev):

   -49.4740 -49.4719 -49.4681 -49.4681 -21.4271 -21.4271 -21.4167 -21.4149
   -21.4149 -21.3970 -21.3957 -21.3957 -21.3805 -21.3805 -21.3730 -21.3730
    -1.9209  -1.2128   0.7152   0.7152   6.4284   6.4284   7.2391   7.2391

          k = 0.0000 0.1420 0.1420 (  7239 PWs)   bands (ev):

   -49.4768 -49.4686 -49.4686 -49.4682 -21.4431 -21.4427 -21.4427 -21.4020
   -21.3946 -21.3946 -21.3920 -21.3920 -21.3910 -21.3719 -21.3633 -21.3607
    -2.7038   0.2975   0.2975   0.5981   5.6257   5.8183   5.8183   8.6327

          k = 0.0000 0.1420 0.2839 (  7248 PWs)   bands (ev):

   -49.4755 -49.4698 -49.4685 -49.4682 -21.4373 -21.4356 -21.4337 -21.4106
   -21.4020 -21.3918 -21.3897 -21.3897 -21.3863 -21.3857 -21.3681 -21.3638
    -2.3590  -0.3583   0.4218   0.6381   5.9686   6.0152   6.5741   7.5839

          k = 0.0000 0.1420 0.4259 (  7247 PWs)   bands (ev):

   -49.4737 -49.4717 -49.4684 -49.4683 -21.4294 -21.4248 -21.4201 -21.4198
   -21.4128 -21.4028 -21.3912 -21.3902 -21.3828 -21.3785 -21.3751 -21.3703
    -1.8135  -1.1172   0.5589   0.6387   6.3359   6.5437   6.8284   7.3555

          k = 0.0000 0.2839 0.2839 (  7259 PWs)   bands (ev):

   -49.4745 -49.4696 -49.4696 -49.4685 -21.4337 -21.4337 -21.4285 -21.4199
   -21.3995 -21.3968 -21.3968 -21.3843 -21.3842 -21.3842 -21.3733 -21.3634
    -2.0256  -0.1493  -0.1493   0.5690   6.3130   6.4601   6.4601   6.7957

          k = 0.0000 0.2839 0.4259 (  7257 PWs)   bands (ev):

   -49.4729 -49.4711 -49.4692 -49.4688 -21.4320 -21.4275 -21.4259 -21.4183
   -21.4139 -21.4070 -21.3892 -21.3822 -21.3819 -21.3809 -21.3751 -21.3675
    -1.5024  -0.8447   0.1331   0.3983   6.3379   6.3900   6.8905   7.1268

          k = 0.0000 0.4259 0.4259 (  7265 PWs)   bands (ev):

   -49.4717 -49.4704 -49.4704 -49.4696 -21.4314 -21.4307 -21.4307 -21.4242
   -21.4089 -21.3986 -21.3986 -21.3892 -21.3759 -21.3737 -21.3737 -21.3685
    -1.0227  -0.4415  -0.4415   0.0096   6.3444   6.6497   6.6497   7.2333

          k = 0.1420 0.1420 0.1420 (  7223 PWs)   bands (ev):

   -49.4764 -49.4686 -49.4686 -49.4686 -21.4411 -21.4411 -21.4411 -21.3990
   -21.3990 -21.3990 -21.3895 -21.3895 -21.3895 -21.3790 -21.3622 -21.3622
    -2.5872   0.3374   0.3374   0.3374   5.8649   5.8649   5.8649   8.8515

          k = 0.1420 0.1420 0.2839 (  7236 PWs)   bands (ev):

   -49.4752 -49.4698 -49.4686 -49.4686 -21.4370 -21.4370 -21.4348 -21.4055
   -21.4055 -21.3930 -21.3912 -21.3880 -21.3880 -21.3853 -21.3664 -21.3645
    -2.2462  -0.2879   0.4309   0.4309   5.9690   5.9690   6.4642   7.9587

          k = 0.1420 0.1420 0.4259 (  7270 PWs)   bands (ev):

   -49.4734 -49.4715 -49.4686 -49.4686 -21.4326 -21.4326 -21.4238 -21.4109
   -21.4109 -21.4090 -21.3877 -21.3877 -21.3810 -21.3792 -21.3725 -21.3714
    -1.7082  -1.0248   0.5104   0.5104   6.0423   6.0423   7.2672   7.5024

          k = 0.1420 0.2839 0.2839 (  7279 PWs)   bands (ev):

   -49.4742 -49.4696 -49.4696 -49.4688 -21.4370 -21.4369 -21.4369 -21.4081
   -21.4070 -21.3951 -21.3951 -21.3833 -21.3831 -21.3831 -21.3700 -21.3644
    -1.9175  -0.0988  -0.0988   0.4260   5.7977   6.1541   6.1541   7.6672

          k = 0.1420 0.2839 0.4259 (  7259 PWs)   bands (ev):

   -49.4727 -49.4710 -49.4693 -49.4690 -21.4383 -21.4380 -21.4317 -21.4211
   -21.4059 -21.4006 -21.3849 -21.3811 -21.3809 -21.3765 -21.3756 -21.3683
    -1.4038  -0.7637   0.1420   0.3382   5.6687   5.8082   6.6362   7.3758

          k = 0.1420 0.4259 0.4259 (  7257 PWs)   bands (ev):

   -49.4716 -49.4704 -49.4704 -49.4697 -21.4404 -21.4382 -21.4382 -21.4319
   -21.3989 -21.3914 -21.3914 -21.3832 -21.3756 -21.3737 -21.3737 -21.3688
    -0.9385  -0.3851  -0.3851   0.0195   5.6445   6.0130   6.0130   6.5789

          k = 0.2839 0.2839 0.2839 (  7250 PWs)   bands (ev):

   -49.4733 -49.4696 -49.4696 -49.4696 -21.4430 -21.4430 -21.4430 -21.4211
   -21.3925 -21.3925 -21.3925 -21.3803 -21.3803 -21.3803 -21.3673 -21.3673
    -1.6045   0.0221   0.0221   0.0221   5.5694   5.5694   5.5694   7.3052

          k = 0.2839 0.2839 0.4259 (  7249 PWs)   bands (ev):

   -49.4721 -49.4708 -49.4696 -49.4696 -21.4472 -21.4472 -21.4421 -21.4341
   -21.3912 -21.3912 -21.3791 -21.3781 -21.3781 -21.3761 -21.3715 -21.3702
    -1.1226  -0.5421   0.1280   0.1280   5.1618   5.1618   5.8094   6.4261

          k = 0.2839 0.4259 0.4259 (  7269 PWs)   bands (ev):

   -49.4713 -49.4704 -49.4704 -49.4700 -21.4517 -21.4498 -21.4498 -21.4449
   -21.3848 -21.3807 -21.3807 -21.3748 -21.3745 -21.3736 -21.3736 -21.3698
    -0.7071  -0.2485  -0.2485   0.0051   4.9152   5.1636   5.1636   5.6288

          k = 0.4259 0.4259 0.4259 (  7268 PWs)   bands (ev):

   -49.4709 -49.4704 -49.4704 -49.4704 -21.4569 -21.4569 -21.4569 -21.4544
   -21.3748 -21.3748 -21.3748 -21.3730 -21.3730 -21.3730 -21.3713 -21.3713
    -0.3975  -0.1268  -0.1268  -0.1268   4.6521   4.6521   4.6521   4.9242

     the Fermi energy is     3.8047 ev

!    total energy              =    -386.16302554 Ry
     estimated scf accuracy    <          7.2E-11 Ry
     smearing contrib. (-TS)   =      -0.00000000 Ry
     internal energy E=F+TS    =    -386.16302554 Ry

     The total energy is F=E-TS. E is the sum of the following terms:
     one-electron contribution =    -314.28973726 Ry
     hartree contribution      =     162.78857571 Ry
     xc contribution           =     -60.33891463 Ry
     ewald contribution        =    -174.32294936 Ry

     convergence has been achieved in  17 iterations

     Forces acting on atoms (cartesian axes, Ry/au):

     atom    1 type  2   force =     0.00000000    0.00000000    0.00000000
     atom    2 type  2   force =     0.00000000    0.00000000    0.00000000
     atom    3 type  2   force =     0.00000000    0.00000000    0.00000000
     atom    4 type  2   force =     0.00000000    0.00000000    0.00000000
     atom    5 type  1   force =     0.00000000    0.00000000    0.00000000
     atom    6 type  1   force =     0.00000000    0.00000000    0.00000000
     atom    7 type  1   force =     0.00000000    0.00000000    0.00000000
     atom    8 type  1   force =     0.00000000    0.00000000    0.00000000

     Total force =     0.000000     Total SCF correction =     0.000000


     Computing stress (Cartesian axis) and pressure

          total   stress  (Ry/bohr**3)                   (kbar)     P=        4.91
   0.00003339   0.00000000   0.00000000            4.91        0.00        0.00
   0.00000000   0.00003339   0.00000000            0.00        4.91        0.00
   0.00000000   0.00000000   0.00003339            0.00        0.00        4.91

     Energy error            =      2.5E-04 Ry
     Gradient error          =      0.0E+00 Ry/Bohr
     Cell gradient error     =      4.9E+00 kbar

     number of scf cycles    =   4
     number of bfgs steps    =   3

     enthalpy           old  =    -386.1627733439 Ry
     enthalpy           new  =    -386.1630255373 Ry

     CASE: enthalpy          _new < enthalpy          _old

     new trust radius        =       0.0228451565 bohr
     new conv_thr            =            1.0E-10 Ry

     new unit-cell volume =    757.23367 a.u.^3 (   112.21045 Ang^3 )
     density =      1.42044 g/cm^3

CELL_PARAMETERS (alat=  9.01936044)
   1.010572703   0.000000000   0.000000000
   0.000000000   1.010572703   0.000000000
   0.000000000   0.000000000   1.010572703

ATOMIC_POSITIONS (crystal)
Na            0.0000000000        0.0000000000        0.0000000000
Na            0.0000000000        0.5000000000        0.5000000000
Na            0.5000000000        0.0000000000        0.5000000000
Na            0.5000000000        0.5000000000        0.0000000000
H             0.0000000000        0.0000000000        0.5000000000
H             0.0000000000        0.5000000000        0.0000000000
H             0.5000000000        0.0000000000        0.0000000000
H             0.5000000000        0.5000000000        0.5000000000



     Writing config-only to output data dir ./NaH.save/
     NEW-OLD atomic charge density approx. for the potential
     extrapolated charge   40.49677, renormalised to   40.00000

     total cpu time spent up to now is       22.3 secs

     Self-consistent Calculation

     iteration #  1     ecut=    70.00 Ry     beta= 0.70
     Davidson diagonalization with overlap
     ethr =  1.00E-06,  avg # of iterations =  3.9

     total cpu time spent up to now is       22.8 secs

     total energy              =    -386.12896574 Ry
     estimated scf accuracy    <       0.01978193 Ry

     iteration #  2     ecut=    70.00 Ry     beta= 0.70
     Davidson diagonalization with overlap
     ethr =  4.95E-05,  avg # of iterations =  3.0

     total cpu time spent up to now is       23.1 secs

     total energy              =    -386.16404777 Ry
     estimated scf accuracy    <       0.03300675 Ry

     iteration #  3     ecut=    70.00 Ry     beta= 0.70
     Davidson diagonalization with overlap
     ethr =  4.95E-05,  avg # of iterations =  2.0

     total cpu time spent up to now is       23.4 secs

     total energy              =    -386.16335828 Ry
     estimated scf accuracy    <       0.00678909 Ry

     iteration #  4     ecut=    70.00 Ry     beta= 0.70
     Davidson diagonalization with overlap
     ethr =  1.70E-05,  avg # of iterations =  1.1

     total cpu time spent up to now is       23.7 secs

     total energy              =    -386.16416204 Ry
     estimated scf accuracy    <       0.00145266 Ry

     iteration #  5     ecut=    70.00 Ry     beta= 0.70
     Davidson diagonalization with overlap
     ethr =  3.63E-06,  avg # of iterations =  1.0

     total cpu time spent up to now is       23.9 secs

     total energy              =    -386.16391603 Ry
     estimated scf accuracy    <       0.00215868 Ry

     iteration #  6     ecut=    70.00 Ry     beta= 0.70
     Davidson diagonalization with overlap
     ethr =  3.63E-06,  avg # of iterations =  1.0

     total cpu time spent up to now is       24.2 secs

     total energy              =    -386.16283632 Ry
     estimated scf accuracy    <       0.00152896 Ry

     iteration #  7     ecut=    70.00 Ry     beta= 0.70
     Davidson diagonalization with overlap
     ethr =  3.63E-06,  avg # of iterations =  2.0

     total cpu time spent up to now is       24.5 secs

     total energy              =    -386.16325846 Ry
     estimated scf accuracy    <       0.00002736 Ry

     iteration #  8     ecut=    70.00 Ry     beta= 0.70
     Davidson diagonalization with overlap
     ethr =  6.84E-08,  avg # of iterations =  2.2

     total cpu time spent up to now is       24.8 secs

     total energy              =    -386.16325044 Ry
     estimated scf accuracy    <       0.00005090 Ry

     iteration #  9     ecut=    70.00 Ry     beta= 0.70
     Davidson diagonalization with overlap
     ethr =  6.84E-08,  avg # of iterations =  1.0

     total cpu time spent up to now is       25.0 secs

     total energy              =    -386.16324823 Ry
     estimated scf accuracy    <       0.00002791 Ry

     iteration # 10     ecut=    70.00 Ry     beta= 0.70
     Davidson diagonalization with overlap
     ethr =  6.84E-08,  avg # of iterations =  1.0

     total cpu time spent up to now is       25.3 secs

     total energy              =    -386.16323618 Ry
     estimated scf accuracy    <       0.00002029 Ry

     iteration # 11     ecut=    70.00 Ry     beta= 0.70
     Davidson diagonalization with overlap
     ethr =  5.07E-08,  avg # of iterations =  2.0

     total cpu time spent up to now is       25.6 secs

     total energy              =    -386.16323997 Ry
     estimated scf accuracy    <       0.00000047 Ry

     iteration # 12     ecut=    70.00 Ry     beta= 0.70
     Davidson diagonalization with overlap
     ethr =  1.17E-09,  avg # of iterations =  1.4

     total cpu time spent up to now is       25.8 secs

     total energy              =    -386.16324058 Ry
     estimated scf accuracy    <       0.00000016 Ry

     iteration # 13     ecut=    70.00 Ry     beta= 0.70
     Davidson diagonalization with overlap
     ethr =  3.99E-10,  avg # of iterations =  3.1

     total cpu time spent up to now is       26.2 secs

     total energy              =    -386.16323980 Ry
     estimated scf accuracy    <       0.00000325 Ry

     iteration # 14     ecut=    70.00 Ry     beta= 0.70
     Davidson diagonalization with overlap
     ethr =  3.99E-10,  avg # of iterations =  3.1

     total cpu time spent up to now is       26.6 secs

     total energy              =    -386.16323988 Ry
     estimated scf accuracy    <       0.00000034 Ry

     iteration # 15     ecut=    70.00 Ry     beta= 0.70
     Davidson diagonalization with overlap
     ethr =  3.99E-10,  avg # of iterations =  2.0

     total cpu time spent up to now is       26.9 secs

     total energy              =    -386.16323993 Ry
     estimated scf accuracy    <          8.4E-09 Ry

     iteration # 16     ecut=    70.00 Ry     beta= 0.70
     Davidson diagonalization with overlap
     ethr =  2.09E-11,  avg # of iterations =  2.0

     total cpu time spent up to now is       27.2 secs

     total energy              =    -386.16323992 Ry
     estimated scf accuracy    <       0.00000001 Ry

     iteration # 17     ecut=    70.00 Ry     beta= 0.70
     Davidson diagonalization with overlap
     ethr =  2.09E-11,  avg # of iterations =  2.0

     total cpu time spent up to now is       27.5 secs

     total energy              =    -386.16323993 Ry
     estimated scf accuracy    <          2.5E-10 Ry

     iteration # 18     ecut=    70.00 Ry     beta= 0.70
     Davidson diagonalization with overlap
     ethr =  6.17E-13,  avg # of iterations =  2.0

     total cpu time spent up to now is       27.8 secs

     End of self-consistent calculation

          k = 0.0000 0.0000 0.0000 (  7153 PWs)   bands (ev):

   -49.5601 -49.5510 -49.5510 -49.5510 -21.5284 -21.5284 -21.5284 -21.4758
   -21.4758 -21.4758 -21.4758 -21.4758 -21.4758 -21.4436 -21.4436 -21.4436
    -2.9674   0.4844   0.4844   0.4844   5.3110   5.3110   5.3110  10.7245

          k = 0.0000 0.0000 0.1414 (  7224 PWs)   bands (ev):

   -49.5596 -49.5514 -49.5510 -49.5510 -21.5258 -21.5258 -21.5247 -21.4784
   -21.4784 -21.4762 -21.4762 -21.4742 -21.4742 -21.4483 -21.4452 -21.4452
    -2.8498   0.1916   0.5166   0.5166   5.4241   5.4241   5.6589   9.4701

          k = 0.0000 0.0000 0.2827 (  7236 PWs)   bands (ev):

   -49.5583 -49.5527 -49.5510 -49.5510 -21.5185 -21.5185 -21.5140 -21.4857
   -21.4857 -21.4771 -21.4771 -21.4697 -21.4697 -21.4612 -21.4496 -21.4496
    -2.5049  -0.4851   0.5910   0.5910   5.7646   5.7646   6.5108   8.1870

          k = 0.0000 0.0000 0.4241 (  7256 PWs)   bands (ev):

   -49.5565 -49.5545 -49.5510 -49.5510 -21.5079 -21.5079 -21.4979 -21.4962
   -21.4962 -21.4791 -21.4778 -21.4778 -21.4633 -21.4633 -21.4561 -21.4561
    -1.9580  -1.2564   0.6531   0.6531   6.3356   6.3356   7.1416   7.1416

          k = 0.0000 0.1414 0.1414 (  7239 PWs)   bands (ev):

   -49.5592 -49.5514 -49.5514 -49.5510 -21.5232 -21.5229 -21.5229 -21.4839
   -21.4768 -21.4768 -21.4743 -21.4743 -21.4734 -21.4550 -21.4468 -21.4443
    -2.7332   0.2402   0.2402   0.5377   5.5374   5.7268   5.7268   8.5204

          k = 0.0000 0.1414 0.2827 (  7248 PWs)   bands (ev):

   -49.5580 -49.5526 -49.5513 -49.5510 -21.5177 -21.5161 -21.5143 -21.4921
   -21.4839 -21.4741 -21.4721 -21.4721 -21.4689 -21.4682 -21.4514 -21.4472
    -2.3918  -0.4098   0.3628   0.5768   5.8784   5.9223   6.4726   7.4784

          k = 0.0000 0.1414 0.4241 (  7247 PWs)   bands (ev):

   -49.5562 -49.5543 -49.5512 -49.5511 -21.5101 -21.5057 -21.5012 -21.5009
   -21.4942 -21.4845 -21.4735 -21.4726 -21.4655 -21.4613 -21.4581 -21.4535
    -1.8517  -1.1618   0.4981   0.5770   6.2405   6.4502   6.7289   7.2573

          k = 0.0000 0.2827 0.2827 (  7259 PWs)   bands (ev):

   -49.5569 -49.5523 -49.5523 -49.5513 -21.5143 -21.5143 -21.5093 -21.5010
   -21.4814 -21.4789 -21.4789 -21.4669 -21.4668 -21.4668 -21.4564 -21.4468
    -2.0618  -0.2032  -0.2032   0.5079   6.2209   6.3590   6.3590   6.6936

          k = 0.0000 0.2827 0.4241 (  7257 PWs)   bands (ev):

   -49.5555 -49.5538 -49.5520 -49.5516 -21.5126 -21.5082 -21.5067 -21.4995
   -21.4952 -21.4886 -21.4716 -21.4649 -21.4646 -21.4636 -21.4581 -21.4508
    -1.5437  -0.8922   0.0761   0.3387   6.2376   6.2899   6.7949   7.0151

          k = 0.0000 0.4241 0.4241 (  7265 PWs)   bands (ev):

   -49.5543 -49.5531 -49.5531 -49.5523 -21.5120 -21.5113 -21.5113 -21.5051
   -21.4905 -21.4806 -21.4806 -21.4716 -21.4589 -21.4568 -21.4568 -21.4517
    -1.0688  -0.4931  -0.4931  -0.0464   6.2421   6.5429   6.5429   7.1185

          k = 0.1414 0.1414 0.1414 (  7223 PWs)   bands (ev):

   -49.5588 -49.5514 -49.5514 -49.5514 -21.5213 -21.5213 -21.5213 -21.4810
   -21.4810 -21.4810 -21.4719 -21.4719 -21.4719 -21.4617 -21.4457 -21.4457
    -2.6178   0.2794   0.2794   0.2794   5.7730   5.7730   5.7730   8.7391

          k = 0.1414 0.1414 0.2827 (  7236 PWs)   bands (ev):

   -49.5576 -49.5525 -49.5514 -49.5514 -21.5174 -21.5174 -21.5152 -21.4872
   -21.4872 -21.4752 -21.4735 -21.4705 -21.4705 -21.4679 -21.4497 -21.4479
    -2.2802  -0.3402   0.3716   0.3716   5.8763   5.8763   6.3635   7.8527

          k = 0.1414 0.1414 0.4241 (  7270 PWs)   bands (ev):

   -49.5560 -49.5542 -49.5514 -49.5514 -21.5132 -21.5132 -21.5047 -21.4924
   -21.4924 -21.4906 -21.4702 -21.4702 -21.4638 -21.4620 -21.4556 -21.4545
    -1.7474  -1.0704   0.4498   0.4498   5.9487   5.9487   7.1552   7.4011

          k = 0.1414 0.2827 0.2827 (  7279 PWs)   bands (ev):

   -49.5567 -49.5523 -49.5523 -49.5516 -21.5174 -21.5173 -21.5173 -21.4897
   -21.4886 -21.4773 -21.4773 -21.4659 -21.4657 -21.4657 -21.4532 -21.4478
    -1.9549  -0.1534  -0.1534   0.3662   5.7057   6.0561   6.0561   7.5622

          k = 0.1414 0.2827 0.4241 (  7259 PWs)   bands (ev):

   -49.5553 -49.5537 -49.5521 -49.5518 -21.5186 -21.5183 -21.5123 -21.5021
   -21.4876 -21.4825 -21.4674 -21.4639 -21.4637 -21.4594 -21.4586 -21.4516
    -1.4461  -0.8121   0.0847   0.2789   5.5767   5.7139   6.5312   7.2617

          k = 0.1414 0.4241 0.4241 (  7257 PWs)   bands (ev):

   -49.5542 -49.5531 -49.5531 -49.5524 -21.5207 -21.5185 -21.5185 -21.5125
   -21.4809 -21.4738 -21.4738 -21.4659 -21.4585 -21.4568 -21.4568 -21.4521
    -0.9855  -0.4375  -0.4375  -0.0370   5.5511   5.9148   5.9148   6.4739

          k = 0.2827 0.2827 0.2827 (  7250 PWs)   bands (ev):

   -49.5559 -49.5523 -49.5523 -49.5523 -21.5231 -21.5231 -21.5231 -21.5021
   -21.4748 -21.4748 -21.4748 -21.4631 -21.4631 -21.4631 -21.4506 -21.4506
    -1.6450  -0.0341  -0.0341  -0.0341   5.4771   5.4771   5.4771   7.1926

          k = 0.2827 0.2827 0.4241 (  7249 PWs)   bands (ev):

   -49.5547 -49.5535 -49.5523 -49.5523 -21.5272 -21.5272 -21.5222 -21.5146
   -21.4735 -21.4735 -21.4619 -21.4610 -21.4610 -21.4591 -21.4546 -21.4534
    -1.1680  -0.5931   0.0702   0.0702   5.0734   5.0734   5.7133   6.3230

          k = 0.2827 0.4241 0.4241 (  7269 PWs)   bands (ev):

   -49.5539 -49.5531 -49.5531 -49.5527 -21.5314 -21.5296 -21.5296 -21.5249
   -21.4674 -21.4635 -21.4635 -21.4578 -21.4575 -21.4566 -21.4566 -21.4531
    -0.7568  -0.3028  -0.3028  -0.0519   4.8286   5.0741   5.0741   5.5341

          k = 0.4241 0.4241 0.4241 (  7268 PWs)   bands (ev):

   -49.5535 -49.5531 -49.5531 -49.5531 -21.5364 -21.5364 -21.5364 -21.5340
   -21.4578 -21.4578 -21.4578 -21.4561 -21.4561 -21.4561 -21.4545 -21.4545
    -0.4507  -0.1828  -0.1828  -0.1828   4.5676   4.5676   4.5676   4.8366

     the Fermi energy is     3.6991 ev

!    total energy              =    -386.16323993 Ry
     estimated scf accuracy    <          2.0E-11 Ry
     smearing contrib. (-TS)   =      -0.00000000 Ry
     internal energy E=F+TS    =    -386.16323993 Ry

     The total energy is F=E-TS. E is the sum of the following terms:
     one-electron contribution =    -315.52604607 Ry
     hartree contribution      =     163.28549963 Ry
     xc contribution           =     -60.32486246 Ry
     ewald contribution        =    -173.59783103 Ry

     convergence has been achieved in  18 iterations

     Forces acting on atoms (cartesian axes, Ry/au):

     atom    1 type  2   force =     0.00000000    0.00000000    0.00000000
     atom    2 type  2   force =     0.00000000    0.00000000    0.00000000
     atom    3 type  2   force =     0.00000000    0.00000000    0.00000000
     atom    4 type  2   force =     0.00000000    0.00000000    0.00000000
     atom    5 type  1   force =     0.00000000    0.00000000    0.00000000
     atom    6 type  1   force =     0.00000000    0.00000000    0.00000000
     atom    7 type  1   force =     0.00000000    0.00000000    0.00000000
     atom    8 type  1   force =     0.00000000    0.00000000    0.00000000

     Total force =     0.000000     Total SCF correction =     0.000000


     Computing stress (Cartesian axis) and pressure

          total   stress  (Ry/bohr**3)                   (kbar)     P=        1.82
   0.00001234   0.00000000   0.00000000            1.82        0.00        0.00
   0.00000000   0.00001234   0.00000000            0.00        1.82        0.00
   0.00000000   0.00000000   0.00001234            0.00        0.00        1.82

     Energy error            =      2.1E-04 Ry
     Gradient error          =      0.0E+00 Ry/Bohr
     Cell gradient error     =      1.8E+00 kbar

     number of scf cycles    =   5
     number of bfgs steps    =   4

     enthalpy           old  =    -386.1630255373 Ry
     enthalpy           new  =    -386.1632399264 Ry

     CASE: enthalpy          _new < enthalpy          _old

     new trust radius        =       0.0136037236 bohr
     new conv_thr            =            1.0E-10 Ry

     new unit-cell volume =    762.86275 a.u.^3 (   113.04460 Ang^3 )
     density =      1.40996 g/cm^3

CELL_PARAMETERS (alat=  9.01936044)
   1.013070634   0.000000000   0.000000000
   0.000000000   1.013070634   0.000000000
   0.000000000   0.000000000   1.013070634

ATOMIC_POSITIONS (crystal)
Na            0.0000000000        0.0000000000        0.0000000000
Na            0.0000000000        0.5000000000        0.5000000000
Na            0.5000000000        0.0000000000        0.5000000000
Na            0.5000000000        0.5000000000        0.0000000000
H             0.0000000000        0.0000000000        0.5000000000
H             0.0000000000        0.5000000000        0.0000000000
H             0.5000000000        0.0000000000        0.0000000000
H             0.5000000000        0.5000000000        0.5000000000



     Writing config-only to output data dir ./NaH.save/
     NEW-OLD atomic charge density approx. for the potential
     extrapolated charge   40.29497, renormalised to   40.00000

     total cpu time spent up to now is       28.6 secs

     Self-consistent Calculation

     iteration #  1     ecut=    70.00 Ry     beta= 0.70
     Davidson diagonalization with overlap
     ethr =  1.00E-06,  avg # of iterations =  3.5

     total cpu time spent up to now is       29.0 secs

     total energy              =    -386.15137427 Ry
     estimated scf accuracy    <       0.00687594 Ry

     iteration #  2     ecut=    70.00 Ry     beta= 0.70
     Davidson diagonalization with overlap
     ethr =  1.72E-05,  avg # of iterations =  3.0

     total cpu time spent up to now is       29.4 secs

     total energy              =    -386.16353654 Ry
     estimated scf accuracy    <       0.01146962 Ry

     iteration #  3     ecut=    70.00 Ry     beta= 0.70
     Davidson diagonalization with overlap
     ethr =  1.72E-05,  avg # of iterations =  2.0

     total cpu time spent up to now is       29.7 secs

     total energy              =    -386.16330101 Ry
     estimated scf accuracy    <       0.00233825 Ry

     iteration #  4     ecut=    70.00 Ry     beta= 0.70
     Davidson diagonalization with overlap
     ethr =  5.85E-06,  avg # of iterations =  1.2

     total cpu time spent up to now is       29.9 secs

     total energy              =    -386.16357213 Ry
     estimated scf accuracy    <       0.00047925 Ry

     iteration #  5     ecut=    70.00 Ry     beta= 0.70
     Davidson diagonalization with overlap
     ethr =  1.20E-06,  avg # of iterations =  1.0

     total cpu time spent up to now is       30.2 secs

     total energy              =    -386.16339478 Ry
     estimated scf accuracy    <       0.00069662 Ry

     iteration #  6     ecut=    70.00 Ry     beta= 0.70
     Davidson diagonalization with overlap
     ethr =  1.20E-06,  avg # of iterations =  1.0

     total cpu time spent up to now is       30.4 secs

     total energy              =    -386.16319673 Ry
     estimated scf accuracy    <       0.00030887 Ry

     iteration #  7     ecut=    70.00 Ry     beta= 0.70
     Davidson diagonalization with overlap
     ethr =  7.72E-07,  avg # of iterations =  2.0

[...]

          total   stress  (Ry/bohr**3)                   (kbar)     P=        0.11
   0.00000072   0.00000000   0.00000000            0.11        0.00        0.00
   0.00000000   0.00000072   0.00000000            0.00        0.11        0.00
   0.00000000   0.00000000   0.00000072            0.00        0.00        0.11

     Energy error            =      3.7E-05 Ry
     Gradient error          =      0.0E+00 Ry/Bohr
     Cell gradient error     =      1.1E-01 kbar

     bfgs converged in   6 scf cycles and   5 bfgs steps
     (criteria: energy <  1.0E-04 Ry, force <  1.0E-03 Ry/Bohr, cell <  5.0E-01 kbar)

     End of BFGS Geometry Optimization

     Final enthalpy           =    -386.1632765836 Ry

     File ./NaH.bfgs deleted, as requested
Begin final coordinates
     new unit-cell volume =    762.86275 a.u.^3 (   113.04460 Ang^3 )
     density =      1.40996 g/cm^3

CELL_PARAMETERS (alat=  9.01936044)
   1.013070634   0.000000000   0.000000000
   0.000000000   1.013070634   0.000000000
   0.000000000   0.000000000   1.013070634

ATOMIC_POSITIONS (crystal)
Na            0.0000000000        0.0000000000        0.0000000000
Na            0.0000000000        0.5000000000        0.5000000000
Na            0.5000000000        0.0000000000        0.5000000000
Na            0.5000000000        0.5000000000        0.0000000000
H             0.0000000000        0.0000000000        0.5000000000
H             0.0000000000        0.5000000000        0.0000000000
H             0.5000000000        0.0000000000        0.0000000000
H             0.5000000000        0.5000000000        0.5000000000
End final coordinates



     Writing config-only to output data dir ./NaH.save/

     Final scf calculation at the relaxed structure.
     The G-vectors are recalculated for the final unit cell
     Results may differ from those at the preceding step.
 
     Parallelization info
     --------------------
     sticks:   dense  smooth     PW     G-vecs:    dense   smooth      PW
     Min         133     133     36                 4304     4304     644
     Max         136     136     37                 4305     4305     647
     Sum        1869    1869    517                60269    60269    9045
 
     Using Slab Decomposition
 


     bravais-lattice index     =            0
     lattice parameter (alat)  =       9.0194  a.u.
     unit-cell volume          =     762.8627 (a.u.)^3
     number of atoms/cell      =            8
     number of atomic types    =            2
     number of electrons       =        40.00
     number of Kohn-Sham states=           24
     kinetic-energy cutoff     =      70.0000  Ry
     charge density cutoff     =     280.0000  Ry
     scf convergence threshold =      1.0E-10
     mixing beta               =       0.7000
     number of iterations used =            8  plain     mixing
     press convergence thresh. =      5.0E-01
     Exchange-correlation= PBE
                           (   1   4   3   4   0   0   0)

     celldm(1)=   9.019360  celldm(2)=   0.000000  celldm(3)=   0.000000
     celldm(4)=   0.000000  celldm(5)=   0.000000  celldm(6)=   0.000000

     crystal axes: (cart. coord. in units of alat)
               a(1) = (   1.013071   0.000000   0.000000 )  
               a(2) = (   0.000000   1.013071   0.000000 )  
               a(3) = (   0.000000   0.000000   1.013071 )  

     reciprocal axes: (cart. coord. in units 2 pi/alat)
               b(1) = (  0.987098  0.000000  0.000000 )  
               b(2) = (  0.000000  0.987098  0.000000 )  
               b(3) = (  0.000000  0.000000  0.987098 )  


     PseudoPot. # 1 for H  read from file:
     /scratch/antwerpen/209/vsc20922/pseudos/H.pbe-rrkjus_psl.1.0.0.UPF
     MD5 check sum: f52b6d4d1c606e5624b1dc7b2218f220
     Pseudo is Ultrasoft, Zval =  1.0
     Generated using "atomic" code by A. Dal Corso  v.5.1
     Using radial grid of  929 points,  2 beta functions with: 
                l(1) =   0
                l(2) =   0
     Q(r) pseudized with 0 coefficients 


     PseudoPot. # 2 for Na read from file:
     /scratch/antwerpen/209/vsc20922/pseudos/na_pbe_v1.5.uspp.F.UPF
     MD5 check sum: 44600605ef58000f06b90626533354dc
     Pseudo is Ultrasoft, Zval =  9.0
     Generated by new atomic code, or converted to UPF format
     Using radial grid of  819 points,  5 beta functions with: 
                l(1) =   0
                l(2) =   0
                l(3) =   1
                l(4) =   1
                l(5) =   2
     Q(r) pseudized with  8 coefficients,  rinner =    1.250   1.250   1.250
                                                       1.250   1.250

     atomic species   valence    mass     pseudopotential
        H              1.00     1.00750     H ( 1.00)
        Na             9.00    22.98900     Na( 1.00)

     48 Sym. Ops., with inversion, found



   Cartesian axes

     site n.     atom                  positions (alat units)
         1           Na  tau(   1) = (   0.0000000   0.0000000   0.0000000  )
         2           Na  tau(   2) = (   0.0000000   0.5065353   0.5065353  )
         3           Na  tau(   3) = (   0.5065353   0.0000000   0.5065353  )
         4           Na  tau(   4) = (   0.5065353   0.5065353   0.0000000  )
         5           H   tau(   5) = (   0.0000000   0.0000000   0.5065353  )
         6           H   tau(   6) = (   0.0000000   0.5065353   0.0000000  )
         7           H   tau(   7) = (   0.5065353   0.0000000   0.0000000  )
         8           H   tau(   8) = (   0.5065353   0.5065353   0.5065353  )

     number of k points=    20  Marzari-Vanderbilt smearing, width (Ry)=  0.0050
                       cart. coord. in units 2pi/alat
        k(    1) = (   0.0000000   0.0000000   0.0000000), wk =   0.0058309
        k(    2) = (   0.0000000   0.0000000   0.1410140), wk =   0.0349854
        k(    3) = (   0.0000000   0.0000000   0.2820280), wk =   0.0349854
        k(    4) = (   0.0000000   0.0000000   0.4230420), wk =   0.0349854
        k(    5) = (   0.0000000   0.1410140   0.1410140), wk =   0.0699708
        k(    6) = (   0.0000000   0.1410140   0.2820280), wk =   0.1399417
        k(    7) = (   0.0000000   0.1410140   0.4230420), wk =   0.1399417
        k(    8) = (   0.0000000   0.2820280   0.2820280), wk =   0.0699708
        k(    9) = (   0.0000000   0.2820280   0.4230420), wk =   0.1399417
        k(   10) = (   0.0000000   0.4230420   0.4230420), wk =   0.0699708
        k(   11) = (   0.1410140   0.1410140   0.1410140), wk =   0.0466472
        k(   12) = (   0.1410140   0.1410140   0.2820280), wk =   0.1399417
        k(   13) = (   0.1410140   0.1410140   0.4230420), wk =   0.1399417
        k(   14) = (   0.1410140   0.2820280   0.2820280), wk =   0.1399417
        k(   15) = (   0.1410140   0.2820280   0.4230420), wk =   0.2798834
        k(   16) = (   0.1410140   0.4230420   0.4230420), wk =   0.1399417
        k(   17) = (   0.2820280   0.2820280   0.2820280), wk =   0.0466472
        k(   18) = (   0.2820280   0.2820280   0.4230420), wk =   0.1399417
        k(   19) = (   0.2820280   0.4230420   0.4230420), wk =   0.1399417
        k(   20) = (   0.4230420   0.4230420   0.4230420), wk =   0.0466472

     Dense  grid:    60269 G-vectors     FFT dimensions: (  50,  50,  50)

     Estimated max dynamical RAM per process >      13.16 MB

     Estimated total dynamical RAM >     353.73 MB

     Initial potential from superposition of free atoms

     starting charge      39.9748, renormalised to      40.0000
     Starting wfcs are   24 randomized atomic wfcs

     total cpu time spent up to now is       34.4 secs

     Self-consistent Calculation

     iteration #  1     ecut=    70.00 Ry     beta= 0.70
     Davidson diagonalization with overlap
     c_bands:  1 eigenvalues not converged
     ethr =  1.00E-06,  avg # of iterations = 13.3

     total cpu time spent up to now is       35.2 secs

     total energy              =    -386.10711607 Ry
     estimated scf accuracy    <       0.36563612 Ry

     iteration #  2     ecut=    70.00 Ry     beta= 0.70
     Davidson diagonalization with overlap
     ethr =  9.14E-04,  avg # of iterations =  2.0

     total cpu time spent up to now is       35.5 secs

     total energy              =    -386.16179498 Ry
     estimated scf accuracy    <       0.00597074 Ry

     iteration #  3     ecut=    70.00 Ry     beta= 0.70
     Davidson diagonalization with overlap
     ethr =  1.49E-05,  avg # of iterations =  2.1

     total cpu time spent up to now is       35.8 secs

     total energy              =    -386.16327115 Ry
     estimated scf accuracy    <       0.00036136 Ry

     iteration #  4     ecut=    70.00 Ry     beta= 0.70
     Davidson diagonalization with overlap
     ethr =  9.03E-07,  avg # of iterations =  2.5

     total cpu time spent up to now is       36.1 secs

     total energy              =    -386.16336347 Ry
     estimated scf accuracy    <       0.00003749 Ry

     iteration #  5     ecut=    70.00 Ry     beta= 0.70
     Davidson diagonalization with overlap
     ethr =  9.37E-08,  avg # of iterations =  2.3

     total cpu time spent up to now is       36.4 secs

     total energy              =    -386.16336998 Ry
     estimated scf accuracy    <       0.00000098 Ry

     iteration #  6     ecut=    70.00 Ry     beta= 0.70
     Davidson diagonalization with overlap
     ethr =  2.44E-09,  avg # of iterations =  2.3

     total cpu time spent up to now is       36.7 secs

     total energy              =    -386.16337020 Ry
     estimated scf accuracy    <       0.00000002 Ry

     iteration #  7     ecut=    70.00 Ry     beta= 0.70
     Davidson diagonalization with overlap
     ethr =  4.80E-11,  avg # of iterations =  2.5

     total cpu time spent up to now is       37.0 secs

     total energy              =    -386.16337021 Ry
     estimated scf accuracy    <          2.0E-09 Ry

     iteration #  8     ecut=    70.00 Ry     beta= 0.70
     Davidson diagonalization with overlap
     ethr =  5.05E-12,  avg # of iterations =  1.9

     total cpu time spent up to now is       37.3 secs

     End of self-consistent calculation

          k = 0.0000 0.0000 0.0000 (  7521 PWs)   bands (ev):

   -49.6087 -49.5999 -49.5999 -49.5999 -21.5757 -21.5757 -21.5757 -21.5245
   -21.5245 -21.5245 -21.5245 -21.5245 -21.5245 -21.4929 -21.4929 -21.4929
    -2.9831   0.4496   0.4496   0.4496   5.2599   5.2599   5.2599  11.0307

          k = 0.0000 0.0000 0.1410 (  7533 PWs)   bands (ev):

   -49.6082 -49.6003 -49.5999 -49.5999 -21.5731 -21.5731 -21.5721 -21.5270
   -21.5270 -21.5248 -21.5248 -21.5229 -21.5229 -21.4975 -21.4945 -21.4945
    -2.8661   0.1585   0.4815   0.4815   5.3727   5.3727   5.6054   9.4048

          k = 0.0000 0.0000 0.2820 (  7536 PWs)   bands (ev):

   -49.6070 -49.6015 -49.5999 -49.5999 -21.5660 -21.5660 -21.5617 -21.5341
   -21.5341 -21.5257 -21.5257 -21.5185 -21.5185 -21.5101 -21.4988 -21.4988
    -2.5233  -0.5146   0.5552   0.5552   5.7121   5.7121   6.4511   8.1260

          k = 0.0000 0.0000 0.4230 (  7552 PWs)   bands (ev):

   -49.6052 -49.6033 -49.5999 -49.5999 -21.5557 -21.5557 -21.5459 -21.5443
   -21.5443 -21.5275 -21.5263 -21.5263 -21.5122 -21.5122 -21.5051 -21.5051
    -1.9796  -1.2819   0.6167   0.6167   6.2812   6.2812   7.0844   7.5308

          k = 0.0000 0.1410 0.1410 (  7493 PWs)   bands (ev):

   -49.6078 -49.6003 -49.6003 -49.5999 -21.5706 -21.5703 -21.5703 -21.5323
   -21.5254 -21.5254 -21.5229 -21.5229 -21.5220 -21.5041 -21.4961 -21.4936
    -2.7503   0.2066   0.2066   0.5024   5.4856   5.6730   5.6730   8.4543

          k = 0.0000 0.1410 0.2820 (  7557 PWs)   bands (ev):

   -49.6067 -49.6015 -49.6002 -49.6000 -21.5652 -21.5637 -21.5619 -21.5403
   -21.5323 -21.5228 -21.5208 -21.5208 -21.5176 -21.5169 -21.5006 -21.4965
    -2.4109  -0.4398   0.3283   0.5410   5.8255   5.8678   6.4129   7.4164

          k = 0.0000 0.1410 0.4230 (  7556 PWs)   bands (ev):

   -49.6050 -49.6031 -49.6001 -49.6000 -21.5578 -21.5536 -21.5491 -21.5488
   -21.5424 -21.5329 -21.5222 -21.5213 -21.5143 -21.5103 -21.5071 -21.5026
    -1.8739  -1.1878   0.4625   0.5410   6.1845   6.3953   6.6705   7.3660

          k = 0.0000 0.2820 0.2820 (  7545 PWs)   bands (ev):

   -49.6057 -49.6012 -49.6012 -49.6002 -21.5619 -21.5619 -21.5570 -21.5490
   -21.5298 -21.5274 -21.5274 -21.5158 -21.5156 -21.5156 -21.5054 -21.4961
    -2.0829  -0.2346  -0.2346   0.4722   6.1668   6.2995   6.2995   6.6336

          k = 0.0000 0.2820 0.4230 (  7545 PWs)   bands (ev):

   -49.6042 -49.6026 -49.6009 -49.6005 -21.5603 -21.5560 -21.5545 -21.5475
   -21.5433 -21.5369 -21.5203 -21.5137 -21.5135 -21.5125 -21.5071 -21.5000
    -1.5678  -0.9199   0.0428   0.3038   6.1787   6.2311   6.9495   7.7620

          k = 0.0000 0.4230 0.4230 (  7548 PWs)   bands (ev):

   -49.6031 -49.6020 -49.6020 -49.6012 -21.5597 -21.5590 -21.5590 -21.5529
   -21.5387 -21.5291 -21.5291 -21.5203 -21.5079 -21.5058 -21.5058 -21.5009
    -1.0957  -0.5232  -0.5232  -0.0792   6.1820   6.4802   6.4802   7.0512

          k = 0.1410 0.1410 0.1410 (  7517 PWs)   bands (ev):

   -49.6074 -49.6003 -49.6003 -49.6003 -21.5688 -21.5688 -21.5688 -21.5295
   -21.5295 -21.5295 -21.5206 -21.5206 -21.5206 -21.5106 -21.4950 -21.4950
    -2.6356   0.2455   0.2455   0.2455   5.7191   5.7191   5.7191   8.6729

          k = 0.1410 0.1410 0.2820 (  7551 PWs)   bands (ev):

   -49.6063 -49.6014 -49.6003 -49.6003 -21.5649 -21.5649 -21.5628 -21.5355
   -21.5355 -21.5237 -21.5222 -21.5192 -21.5192 -21.5167 -21.4990 -21.4972
    -2.3000  -0.3707   0.3369   0.3369   5.8219   5.8219   6.3044   7.7904

          k = 0.1410 0.1410 0.4230 (  7550 PWs)   bands (ev):

   -49.6047 -49.6030 -49.6003 -49.6003 -21.5608 -21.5608 -21.5525 -21.5406
   -21.5406 -21.5387 -21.5189 -21.5189 -21.5127 -21.5110 -21.5046 -21.5036
    -1.7703  -1.0971   0.4144   0.4144   5.8938   5.8938   7.0894   7.3416

          k = 0.1410 0.2820 0.2820 (  7528 PWs)   bands (ev):

   -49.6054 -49.6012 -49.6012 -49.6005 -21.5649 -21.5648 -21.5648 -21.5380
   -21.5368 -21.5258 -21.5258 -21.5148 -21.5146 -21.5146 -21.5023 -21.4971
    -1.9766  -0.1852  -0.1852   0.3312   5.6517   5.9986   5.9986   7.5006

          k = 0.1410 0.2820 0.4230 (  7536 PWs)   bands (ev):

   -49.6040 -49.6026 -49.6010 -49.6007 -21.5661 -21.5658 -21.5599 -21.5499
   -21.5359 -21.5309 -21.5163 -21.5128 -21.5126 -21.5084 -21.5076 -21.5008
    -1.4708  -0.8404   0.0512   0.2442   5.5227   5.6586   6.4695   7.1947

          k = 0.1410 0.4230 0.4230 (  7563 PWs)   bands (ev):

   -49.6030 -49.6020 -49.6020 -49.6013 -21.5681 -21.5660 -21.5660 -21.5601
   -21.5294 -21.5224 -21.5224 -21.5147 -21.5076 -21.5058 -21.5058 -21.5012
    -1.0130  -0.4681  -0.4681  -0.0700   5.4963   5.8571   5.8571   6.4122

          k = 0.2820 0.2820 0.2820 (  7565 PWs)   bands (ev):

   -49.6046 -49.6012 -49.6012 -49.6012 -21.5705 -21.5705 -21.5705 -21.5500
   -21.5234 -21.5234 -21.5234 -21.5120 -21.5120 -21.5120 -21.4998 -21.4998
    -1.6686  -0.0670  -0.0670  -0.0670   5.4229   5.4229   5.4229   7.1264

          k = 0.2820 0.2820 0.4230 (  7551 PWs)   bands (ev):

   -49.6035 -49.6023 -49.6012 -49.6012 -21.5744 -21.5744 -21.5696 -21.5621
   -21.5222 -21.5222 -21.5108 -21.5099 -21.5099 -21.5081 -21.5037 -21.5025
    -1.1944  -0.6228   0.0365   0.0365   5.0215   5.0215   5.6568   6.2625

          k = 0.2820 0.4230 0.4230 (  7564 PWs)   bands (ev):

   -49.6028 -49.6019 -49.6019 -49.6016 -21.5786 -21.5768 -21.5768 -21.5723
   -21.5162 -21.5124 -21.5124 -21.5068 -21.5066 -21.5057 -21.5057 -21.5022
    -0.7857  -0.3345  -0.3345  -0.0851   4.7778   5.0216   5.0216   5.4785

          k = 0.4230 0.4230 0.4230 (  7559 PWs)   bands (ev):

   -49.6024 -49.6019 -49.6019 -49.6019 -21.5835 -21.5835 -21.5835 -21.5811
   -21.5068 -21.5068 -21.5068 -21.5051 -21.5051 -21.5051 -21.5036 -21.5036
    -0.4817  -0.2155  -0.2155  -0.2155   4.5181   4.5181   4.5181   4.7852

     the Fermi energy is     3.9610 ev

!    total energy              =    -386.16337021 Ry
     estimated scf accuracy    <          8.7E-11 Ry
     smearing contrib. (-TS)   =      -0.00000000 Ry
     internal energy E=F+TS    =    -386.16337021 Ry

     The total energy is F=E-TS. E is the sum of the following terms:
     one-electron contribution =    -316.25625221 Ry
     hartree contribution      =     163.57925771 Ry
     xc contribution           =     -60.31658529 Ry
     ewald contribution        =    -173.16979042 Ry

     convergence has been achieved in   8 iterations

     Forces acting on atoms (cartesian axes, Ry/au):

     atom    1 type  2   force =     0.00000000    0.00000000    0.00000000
     atom    2 type  2   force =     0.00000000    0.00000000    0.00000000
     atom    3 type  2   force =     0.00000000    0.00000000    0.00000000
     atom    4 type  2   force =     0.00000000    0.00000000    0.00000000
     atom    5 type  1   force =     0.00000000    0.00000000    0.00000000
     atom    6 type  1   force =     0.00000000    0.00000000    0.00000000
     atom    7 type  1   force =     0.00000000    0.00000000    0.00000000
     atom    8 type  1   force =     0.00000000    0.00000000    0.00000000

     Total force =     0.000000     Total SCF correction =     0.000000


     Computing stress (Cartesian axis) and pressure

          total   stress  (Ry/bohr**3)                   (kbar)     P=        0.11
   0.00000074   0.00000000   0.00000000            0.11        0.00        0.00
   0.00000000   0.00000074   0.00000000            0.00        0.11        0.00
   0.00000000   0.00000000   0.00000074            0.00        0.00        0.11


     Writing all to output data dir ./NaH.save/
 
     init_run     :      0.77s CPU      0.83s WALL (       2 calls)
     electrons    :     29.71s CPU     31.88s WALL (       7 calls)
     update_pot   :      1.49s CPU      1.51s WALL (       5 calls)
     forces       :      0.96s CPU      0.99s WALL (       7 calls)
     stress       :      1.85s CPU      1.87s WALL (       7 calls)

     Called by init_run:
     wfcinit      :      0.17s CPU      0.18s WALL (       2 calls)
     potinit      :      0.21s CPU      0.22s WALL (       2 calls)
     hinit0       :      0.32s CPU      0.33s WALL (       2 calls)

     Called by electrons:
     c_bands      :     23.94s CPU     25.14s WALL (     105 calls)
     sum_band     :      4.49s CPU      4.63s WALL (     105 calls)
     v_of_rho     :      0.59s CPU      0.60s WALL (     111 calls)
     newd         :      0.54s CPU      0.54s WALL (     111 calls)
     mix_rho      :      0.14s CPU      0.14s WALL (     105 calls)

     Called by c_bands:
     init_us_2    :      0.44s CPU      0.47s WALL (    2260 calls)
     init_us_2:cp :      0.43s CPU      0.46s WALL (    2260 calls)
     cegterg      :     21.61s CPU     22.23s WALL (    1050 calls)

     Called by *egterg:
     cdiaghg      :      1.83s CPU      1.86s WALL (    3236 calls)
     h_psi        :     16.76s CPU     17.30s WALL (    3316 calls)
     s_psi        :      0.58s CPU      0.60s WALL (    3316 calls)
     g_psi        :      0.17s CPU      0.17s WALL (    2246 calls)

     Called by h_psi:
     h_psi:calbec :      0.78s CPU      0.81s WALL (    3316 calls)
     vloc_psi     :     15.21s CPU     15.71s WALL (    3316 calls)
     add_vuspsi   :      0.61s CPU      0.63s WALL (    3316 calls)

     General routines
     calbec       :      1.13s CPU      1.17s WALL (    4716 calls)
     fft          :      0.28s CPU      0.28s WALL (    1283 calls)
     ffts         :      0.02s CPU      0.02s WALL (     105 calls)
     fftw         :     16.19s CPU     16.70s WALL (  150448 calls)
 
     Parallel routines
 
     PWSCF        :     35.02s CPU     39.60s WALL

 
   This run was terminated on:  16:37: 3   3Dec2023            

=------------------------------------------------------------------------------=
   JOB DONE.
=------------------------------------------------------------------------------=
