
     Program PWSCF v.6.8 starts on 30Nov2023 at 16:20:23 

     This program is part of the open-source Quantum ESPRESSO suite
     for quantum simulation of materials; please cite
         "P. Giannozzi et al., J. Phys.:Condens. Matter 21 395502 (2009);
         "P. Giannozzi et al., J. Phys.:Condens. Matter 29 465901 (2017);
         "P. Giannozzi et al., J. Chem. Phys. 152 154105 (2020);
          URL http://www.quantum-espresso.org", 
     in publications or presentations arising from this work. More details at
     http://www.quantum-espresso.org/quote

     Parallel version (MPI), running on    12 processors

     MPI processes distributed on     1 nodes
     R & G space division:  proc/nbgrp/npool/nimage =      12
     175098 MiB available memory on the printing compute node when the environment starts

     Reading input from input2.in

     Current dimensions of program PWSCF are:
     Max number of different atomic species (ntypx) = 10
     Max number of k-points (npk) =  40000
     Max angular momentum in pseudopotentials (lmaxx) =  4
     file Al.pbe-n-kjpaw_psl.1.0.0.UPF: wavefunction(s)  3S 3P renormalized

     IMPORTANT: XC functional enforced from input :
     Exchange-correlation= PBE
                           (   1   4   3   4   0   0   0)
     Any further DFT definition will be discarded
     Please, verify this is what you really want

     Message from routine setup:
     using ibrav=0 with symmetry is DISCOURAGED, use correct ibrav instead

     Subspace diagonalization in iterative solution of the eigenvalue problem:
     one sub-group per band group will be used
     scalapack distributed-memory algorithm (size of sub-group:  3*  3 procs)


     Parallelization info
     --------------------
     sticks:   dense  smooth     PW     G-vecs:    dense   smooth      PW
     Min         165     165     46                 7819     7819    1172
     Max         166     166     47                 7824     7824    1177
     Sum        1983    1983    557                93853    93853   14089

     Using Slab Decomposition



     bravais-lattice index     =            0
     lattice parameter (alat)  =      10.0031  a.u.
     unit-cell volume          =    1494.3894 (a.u.)^3
     number of atoms/cell      =           20
     number of atomic types    =            3
     number of electrons       =        72.00
     number of Kohn-Sham states=           43
     kinetic-energy cutoff     =      60.0000  Ry
     charge density cutoff     =     240.0000  Ry
     scf convergence threshold =      1.0E-08
     mixing beta               =       0.7000
     number of iterations used =            8  plain     mixing
     energy convergence thresh.=      1.0E-04
     force convergence thresh. =      1.0E-03
     press convergence thresh. =      5.0E-01
     Exchange-correlation= PBE
                           (   1   4   3   4   0   0   0)
     nstep                     =           50


     celldm(1)=  10.003076  celldm(2)=   0.000000  celldm(3)=   0.000000
     celldm(4)=   0.000000  celldm(5)=   0.000000  celldm(6)=   0.000000

     crystal axes: (cart. coord. in units of alat)
               a(1) = (   1.000000   0.000000   0.000000 )  
               a(2) = (   0.000000   1.037180   0.000000 )  
               a(3) = (  -1.000435   0.000000   1.439490 )  

     reciprocal axes: (cart. coord. in units 2 pi/alat)
               b(1) = (  1.000000 -0.000000  0.694992 )  
               b(2) = (  0.000000  0.964153 -0.000000 )  
               b(3) = (  0.000000  0.000000  0.694690 )  


     PseudoPot. # 1 for Al read from file:
     ./Al.pbe-n-kjpaw_psl.1.0.0.UPF
     MD5 check sum: cfc449ca30b5f3223ec38ddd88ac046d
     Pseudo is Projector augmented-wave + core cor, Zval =  3.0
     Generated using "atomic" code by A. Dal Corso  v.5.1
     Shape of augmentation charge: PSQ
     Using radial grid of 1135 points,  6 beta functions with: 
                l(1) =   0
                l(2) =   0
                l(3) =   1
                l(4) =   1
                l(5) =   2
                l(6) =   2
     Q(r) pseudized with 0 coefficients 


     PseudoPot. # 2 for H  read from file:
     ./H.pbe-rrkjus_psl.1.0.0.UPF
     MD5 check sum: f52b6d4d1c606e5624b1dc7b2218f220
     Pseudo is Ultrasoft, Zval =  1.0
     Generated using "atomic" code by A. Dal Corso  v.5.1
     Using radial grid of  929 points,  2 beta functions with: 
                l(1) =   0
                l(2) =   0
     Q(r) pseudized with 0 coefficients 


     PseudoPot. # 3 for Rb read from file:
     ./Rb_ONCV_PBE-1.0.oncvpsp.upf
     MD5 check sum: 55a5172d6bfbce6759a58e35d43f6aa9
     Pseudo is Norm-conserving, Zval =  9.0
     Generated using ONCVPSP code by D. R. Hamann
     Using radial grid of 2308 points,  6 beta functions with: 
                l(1) =   0
                l(2) =   0
                l(3) =   1
                l(4) =   1
                l(5) =   2
                l(6) =   2

     atomic species   valence    mass     pseudopotential
        Al             3.00    26.98100     Al( 1.00)
        H              1.00     1.00750     H ( 1.00)
        Rb             9.00    85.46780     Rb( 1.00)

      4 Sym. Ops., with inversion, found ( 2 have fractional translation)



   Cartesian axes

     site n.     atom                  positions (alat units)
         1           Rb  tau(   1) = (  -0.0005709   0.5200097   0.3565227  )
         2           Rb  tau(   2) = (   0.0001362   0.5171706   1.0829677  )
         3           Rb  tau(   3) = (   0.5003535   0.0014196   0.3632225  )
         4           Rb  tau(   4) = (  -0.5007882   1.0357607   1.0762679  )
         5           Rb  tau(   5) = (  -0.0002173   0.0000000   0.7197452  )
         6           Rb  tau(   6) = (   0.5000000   0.5185901   0.0000000  )
         7           Al  tau(   7) = (   0.0000000   0.0000000   0.0000000  )
         8           Al  tau(   8) = (  -0.5002173   0.5185901   0.7197452  )
         9           H   tau(   9) = (  -0.4904554   0.5062158   1.0254618  )
        10           H   tau(  10) = (   0.4900207   0.5309644   0.4140286  )
        11           H   tau(  11) = (  -0.0101966  -0.0123743   1.1337739  )
        12           H   tau(  12) = (   0.0097620   1.0495546   0.3057166  )
        13           H   tau(  13) = (  -0.2848022   0.3015063   0.7035743  )
        14           H   tau(  14) = (   0.2843675   0.7356739   0.7359161  )
        15           H   tau(  15) = (  -0.2158498   0.8200964   1.4556613  )
        16           H   tau(  16) = (   0.2154152   0.2170838  -0.0161709  )
        17           H   tau(  17) = (  -0.2792648   0.7312909   0.7210319  )
        18           H   tau(  18) = (   0.2788302   0.3058893   0.7184585  )
        19           H   tau(  19) = (  -0.2213872   0.2127008   1.4382038  )
        20           H   tau(  20) = (   0.2209525   0.8244795   0.0012867  )

     number of k points=    39  Marzari-Vanderbilt smearing, width (Ry)=  0.0050
                       cart. coord. in units 2pi/alat
        k(    1) = (   0.0000000   0.0000000   0.0000000), wk =   0.0160000
        k(    2) = (   0.0000000   0.0000000   0.1389381), wk =   0.0320000
        k(    3) = (   0.0000000   0.0000000   0.2778761), wk =   0.0320000
        k(    4) = (   0.0000000   0.1928305   0.0000000), wk =   0.0320000
        k(    5) = (   0.0000000   0.1928305   0.1389381), wk =   0.0640000
        k(    6) = (   0.0000000   0.1928305   0.2778761), wk =   0.0640000
        k(    7) = (   0.0000000   0.3856610   0.0000000), wk =   0.0320000
        k(    8) = (   0.0000000   0.3856610   0.1389381), wk =   0.0640000
        k(    9) = (   0.0000000   0.3856610   0.2778761), wk =   0.0640000
        k(   10) = (   0.2000000   0.0000000   0.1389984), wk =   0.0320000
        k(   11) = (   0.2000000   0.0000000   0.2779365), wk =   0.0320000
        k(   12) = (   0.2000000   0.0000000   0.4168746), wk =   0.0320000
        k(   13) = (   0.2000000   0.0000000  -0.1388777), wk =   0.0320000
        k(   14) = (   0.2000000   0.0000000   0.0000604), wk =   0.0320000
        k(   15) = (   0.2000000   0.1928305   0.1389984), wk =   0.0640000
        k(   16) = (   0.2000000   0.1928305   0.2779365), wk =   0.0640000
        k(   17) = (   0.2000000   0.1928305   0.4168746), wk =   0.0640000
        k(   18) = (   0.2000000   0.1928305  -0.1388777), wk =   0.0640000
        k(   19) = (   0.2000000   0.1928305   0.0000604), wk =   0.0640000
        k(   20) = (   0.2000000   0.3856610   0.1389984), wk =   0.0640000
        k(   21) = (   0.2000000   0.3856610   0.2779365), wk =   0.0640000
        k(   22) = (   0.2000000   0.3856610   0.4168746), wk =   0.0640000
        k(   23) = (   0.2000000   0.3856610  -0.1388777), wk =   0.0640000
        k(   24) = (   0.2000000   0.3856610   0.0000604), wk =   0.0640000
        k(   25) = (   0.4000000   0.0000000   0.2779969), wk =   0.0320000
        k(   26) = (   0.4000000   0.0000000   0.4169349), wk =   0.0320000
        k(   27) = (   0.4000000   0.0000000   0.5558730), wk =   0.0320000
        k(   28) = (   0.4000000   0.0000000   0.0001208), wk =   0.0320000
        k(   29) = (   0.4000000   0.0000000   0.1390588), wk =   0.0320000
        k(   30) = (   0.4000000   0.1928305   0.2779969), wk =   0.0640000
        k(   31) = (   0.4000000   0.1928305   0.4169349), wk =   0.0640000
        k(   32) = (   0.4000000   0.1928305   0.5558730), wk =   0.0640000
        k(   33) = (   0.4000000   0.1928305   0.0001208), wk =   0.0640000
        k(   34) = (   0.4000000   0.1928305   0.1390588), wk =   0.0640000
        k(   35) = (   0.4000000   0.3856610   0.2779969), wk =   0.0640000
        k(   36) = (   0.4000000   0.3856610   0.4169349), wk =   0.0640000
        k(   37) = (   0.4000000   0.3856610   0.5558730), wk =   0.0640000
        k(   38) = (   0.4000000   0.3856610   0.0001208), wk =   0.0640000
        k(   39) = (   0.4000000   0.3856610   0.1390588), wk =   0.0640000

     Dense  grid:    93853 G-vectors     FFT dimensions: (  50,  54,  90)

     Estimated max dynamical RAM per process >      67.19 MB

     Estimated total dynamical RAM >     806.30 MB

     Initial potential from superposition of free atoms

     starting charge   71.84671, renormalised to   72.00000
     Starting wfcs are   50 randomized atomic wfcs
     Checking if some PAW data can be deallocated... 

     total cpu time spent up to now is        4.5 secs

     Self-consistent Calculation

     iteration #  1     ecut=    60.00 Ry     beta= 0.70
     Davidson diagonalization with overlap
     ethr =  1.00E-02,  avg # of iterations =  7.4

     total cpu time spent up to now is       12.4 secs

     total energy              =    -385.95546182 Ry
     estimated scf accuracy    <       1.69844684 Ry

     iteration #  2     ecut=    60.00 Ry     beta= 0.70
     Davidson diagonalization with overlap
     ethr =  2.36E-03,  avg # of iterations =  2.5

     total cpu time spent up to now is       18.5 secs

     total energy              =    -386.28799011 Ry
     estimated scf accuracy    <       0.15192873 Ry

     iteration #  3     ecut=    60.00 Ry     beta= 0.70
     Davidson diagonalization with overlap
     ethr =  2.11E-04,  avg # of iterations =  8.7

     total cpu time spent up to now is       26.4 secs

     total energy              =    -386.32654540 Ry
     estimated scf accuracy    <       0.00470502 Ry

     iteration #  4     ecut=    60.00 Ry     beta= 0.70
     Davidson diagonalization with overlap
     ethr =  6.53E-06,  avg # of iterations = 11.8

     total cpu time spent up to now is       35.9 secs

     total energy              =    -386.32779315 Ry
     estimated scf accuracy    <       0.00012412 Ry

     iteration #  5     ecut=    60.00 Ry     beta= 0.70
     Davidson diagonalization with overlap
     c_bands:  2 eigenvalues not converged
     c_bands:  1 eigenvalues not converged
     ethr =  1.72E-07,  avg # of iterations =  3.9

     total cpu time spent up to now is       42.6 secs

     total energy              =    -386.32783605 Ry
     estimated scf accuracy    <       0.00001449 Ry

     iteration #  6     ecut=    60.00 Ry     beta= 0.70
     Davidson diagonalization with overlap
     ethr =  2.01E-08,  avg # of iterations =  2.6

     total cpu time spent up to now is       48.8 secs

     total energy              =    -386.32783970 Ry
     estimated scf accuracy    <       0.00000038 Ry

     iteration #  7     ecut=    60.00 Ry     beta= 0.70
     Davidson diagonalization with overlap
     ethr =  5.28E-10,  avg # of iterations =  3.7

     total cpu time spent up to now is       55.0 secs

     total energy              =    -386.32783980 Ry
     estimated scf accuracy    <       0.00000003 Ry

     iteration #  8     ecut=    60.00 Ry     beta= 0.70
     Davidson diagonalization with overlap
     ethr =  4.66E-11,  avg # of iterations =  3.6

     total cpu time spent up to now is       61.9 secs

     total energy              =    -386.32783982 Ry
     estimated scf accuracy    <       0.00000001 Ry

     iteration #  9     ecut=    60.00 Ry     beta= 0.70
     Davidson diagonalization with overlap
     ethr =  1.54E-11,  avg # of iterations =  2.0

     total cpu time spent up to now is       67.5 secs

     End of self-consistent calculation

          k = 0.0000 0.0000 0.0000 ( 11707 PWs)   bands (ev):

   -19.3420 -19.1349 -19.0837 -19.0271 -18.7248 -18.5625  -4.6129  -4.5527
    -4.1699  -3.8737  -3.7756  -3.6793  -3.6544  -3.6498  -3.6478  -3.4094
    -3.0816  -3.0253  -2.9583  -2.7828  -2.7191  -2.6527  -2.4468  -2.3841
     0.1345   1.0577   4.3757   4.5860   4.5922   4.6106   5.1374   5.2341
     5.4433   5.4486   5.8957   6.1049   9.7336  11.7741  11.8633  12.3636
    12.4126  12.8203  13.0199

          k = 0.0000 0.0000 0.1389 ( 11735 PWs)   bands (ev):

   -19.3265 -19.1628 -19.0766 -19.0322 -18.7030 -18.5742  -4.5684  -4.5068
    -4.1017  -4.0240  -3.9201  -3.7831  -3.5937  -3.5284  -3.4442  -3.4081
    -3.1232  -3.0581  -3.0302  -2.8672  -2.7383  -2.6108  -2.4670  -2.3941
     0.3443   1.1087   3.9821   4.1742   4.6406   4.6519   5.0776   5.1637
     5.5019   5.8444   6.0293   6.2275   9.9863  11.9984  12.1516  12.3984
    12.4827  12.6095  12.7654

          k = 0.0000 0.0000 0.2779 ( 11742 PWs)   bands (ev):

   -19.2832 -19.2224 -19.0621 -19.0455 -18.6551 -18.6072  -4.4407  -4.3739
    -4.2475  -4.1693  -3.9424  -3.8216  -3.4318  -3.3702  -3.3648  -3.2755
    -3.2297  -3.2083  -3.1590  -3.1463  -2.6344  -2.5317  -2.5179  -2.4361
     0.7931   1.1077   3.5387   3.6479   4.7709   4.7902   4.9330   4.9897
     5.6478   5.8470   6.3499   6.5246  10.6853  11.6617  12.4758  12.6311
    12.6330  12.6712  12.8359

          k = 0.0000 0.1928 0.0000 ( 11731 PWs)   bands (ev):

   -19.3144 -19.1243 -19.1022 -19.0371 -18.7169 -18.5822  -4.6143  -4.5432
    -3.9911  -3.9895  -3.9723  -3.9403  -3.6945  -3.5973  -3.4189  -3.3999
    -3.1396  -2.9942  -2.9263  -2.7629  -2.6521  -2.6372  -2.5213  -2.4137
     0.5000   1.1072   4.2301   4.2621   4.4946   4.6574   4.6764   4.9331
     5.7064   6.0052   6.0665   6.6794  10.1621  11.8779  12.2012  12.3882
    12.6036  12.6046  12.8725

          k = 0.0000 0.1928 0.1389 ( 11719 PWs)   bands (ev):

   -19.3002 -19.1519 -19.0914 -19.0425 -18.6992 -18.5919  -4.5570  -4.5021
    -4.0747  -4.0346  -3.9597  -3.9268  -3.6634  -3.5356  -3.5198  -3.3315
    -3.1839  -3.0731  -2.8888  -2.7951  -2.6865  -2.5959  -2.5206  -2.4159
     0.6506   1.1561   4.1289   4.2667   4.2957   4.3141   4.6117   4.8734
     6.0996   6.1162   6.3500   6.6098  10.3552  12.0211  12.0403  12.5079
    12.6435  12.6562  12.7326

          k = 0.0000 0.1928 0.2779 ( 11728 PWs)   bands (ev):

   -19.2607 -19.2056 -19.0749 -19.0568 -18.6597 -18.6197  -4.4052  -4.3852
    -4.2182  -4.2145  -3.9376  -3.9157  -3.5593  -3.4981  -3.4188  -3.3640
    -3.2915  -3.2603  -2.8852  -2.8533  -2.6391  -2.5546  -2.5092  -2.4414
     0.9754   1.1831   3.7071   3.7838   4.3850   4.4881   4.5056   4.7071
     6.2538   6.4408   6.5933   6.7078  10.8743  11.5293  12.3959  12.4720
    12.5070  12.7471  12.8462

          k = 0.0000 0.3857 0.0000 ( 11780 PWs)   bands (ev):

   -19.2435 -19.1605 -19.0968 -19.0635 -18.6847 -18.6313  -4.5526  -4.3576
    -4.3069  -4.1248  -4.1039  -3.9984  -3.7015  -3.4949  -3.4618  -3.2871
    -3.2085  -3.0699  -2.8506  -2.6720  -2.5805  -2.5510  -2.5388  -2.4911
     1.0641   1.1957   3.9127   4.0260   4.1634   4.2893   4.7438   4.8128
     6.0823   6.1815   6.9182   7.2016  11.1836  11.3912  11.5717  12.1790
    12.3105  12.4959  12.5410

          k = 0.0000 0.3857 0.1389 ( 11759 PWs)   bands (ev):

   -19.2334 -19.1605 -19.1036 -19.0705 -18.6776 -18.6348  -4.5028  -4.3295
    -4.2973  -4.1345  -4.0945  -4.0350  -3.6335  -3.4814  -3.4725  -3.3389
    -3.3324  -3.1867  -2.7605  -2.6398  -2.5606  -2.5588  -2.5457  -2.4745
     1.1434   1.2541   3.9625   4.0375   4.1483   4.2680   4.4013   4.4525
     6.4704   6.5482   6.9443   7.1737  11.3000  11.3779  11.6654  12.2119
    12.3539  12.4796  12.5836

          k = 0.0000 0.3857 0.2779 ( 11716 PWs)   bands (ev):

   -19.2066 -19.1751 -19.1043 -19.0878 -18.6615 -18.6454  -4.3941  -4.3170
    -4.2575  -4.1785  -4.0591  -4.0548  -3.5265  -3.4892  -3.4862  -3.4519
    -3.4244  -3.3912  -2.6672  -2.6382  -2.5794  -2.5627  -2.4852  -2.4586
     1.2995   1.3454   3.9906   4.0129   4.0713   4.0823   4.1137   4.1985
     6.9585   6.9926   7.0137   7.1014  11.3722  11.4223  11.9158  12.2975
    12.3274  12.4812  12.5478

          k = 0.2000 0.0000 0.1390 ( 11722 PWs)   bands (ev):

   -19.2940 -19.1474 -19.0845 -19.0418 -18.7111 -18.5994  -4.6259  -4.4267
    -4.1679  -4.0085  -3.9765  -3.9093  -3.7343  -3.5130  -3.4772  -3.3768
    -3.1275  -3.0705  -2.8001  -2.7511  -2.7191  -2.6342  -2.4961  -2.4658
     0.6692   1.1531   4.1544   4.2713   4.2887   4.3166   4.6607   4.7968
     6.1263   6.1339   6.3880   6.6164  10.4079  11.9127  12.1915  12.5877
    12.5932  12.6248  12.6746

          k = 0.2000 0.0000 0.2779 ( 11735 PWs)   bands (ev):

   -19.2544 -19.1999 -19.0713 -19.0550 -18.6694 -18.6284  -4.4795  -4.3054
    -4.2961  -4.1231  -3.9886  -3.9825  -3.6074  -3.5106  -3.4112  -3.3429
    -3.2664  -3.2241  -2.8202  -2.8018  -2.6203  -2.5575  -2.5403  -2.4773
     0.9702   1.1655   3.7485   3.8216   4.3791   4.4738   4.5407   4.6573
     6.2668   6.4448   6.6241   6.7476  10.9137  11.5994  12.3159  12.4917
    12.5422  12.6301  12.6963

          k = 0.2000 0.0000 0.4169 ( 11737 PWs)   bands (ev):

   -19.2549 -19.1993 -19.0713 -19.0550 -18.6702 -18.6278  -4.4745  -4.3109
    -4.2979  -4.1154  -3.9914  -3.9820  -3.6184  -3.5005  -3.4109  -3.3496
    -3.2685  -3.2208  -2.8242  -2.7997  -2.6250  -2.5516  -2.5330  -2.4812
     0.9690   1.1706   3.7452   3.8206   4.3950   4.4626   4.5249   4.6676
     6.2566   6.4546   6.6330   6.7353  10.9176  11.5917  12.2766  12.5431
    12.6070  12.6665  12.7486

          k = 0.2000 0.0000-0.1389 ( 11720 PWs)   bands (ev):

   -19.2943 -19.1469 -19.0845 -19.0418 -18.7116 -18.5991  -4.6224  -4.4293
    -4.1640  -4.0183  -3.9706  -3.9002  -3.7429  -3.5102  -3.4868  -3.3764
    -3.1264  -3.0723  -2.8060  -2.7502  -2.7217  -2.6243  -2.4920  -2.4670
     0.6698   1.1579   4.1504   4.2808   4.2880   4.3077   4.6501   4.8030
     6.1200   6.1374   6.3794   6.6229  10.4089  11.9238  12.1798  12.6110
    12.6126  12.6808  12.6900

          k = 0.2000 0.0000 0.0001 ( 11757 PWs)   bands (ev):

   -19.3084 -19.1239 -19.0897 -19.0367 -18.7301 -18.5891  -4.6804  -4.4709
    -4.0949  -4.0646  -3.9636  -3.7894  -3.7540  -3.5938  -3.4744  -3.3736
    -3.0890  -2.9813  -2.8305  -2.7667  -2.7257  -2.6176  -2.4835  -2.4784
     0.5311   1.1158   4.2289   4.2328   4.5101   4.6915   4.7056   4.8475
     5.7445   6.0398   6.0744   6.6893  10.2276  11.7674  12.3969  12.4817
    12.6138  12.6355  12.7414

          k = 0.2000 0.1928 0.1390 ( 11723 PWs)   bands (ev):

   -19.2697 -19.1372 -19.0946 -19.0499 -18.7113 -18.6173  -4.6879  -4.2665
    -4.2436  -4.1976  -4.0642  -3.8853  -3.8007  -3.4728  -3.4360  -3.2642
    -3.1021  -3.0424  -2.9861  -2.6970  -2.6160  -2.5447  -2.5402  -2.4755
     0.8855   1.1652   3.7349   4.2855   4.3989   4.4417   4.7988   4.8775
     5.9157   6.1645   6.5249   6.9141  10.7546  11.4908  11.5953  12.6231
    12.6562  12.7189  12.7620

          k = 0.2000 0.1928 0.2779 ( 11729 PWs)   bands (ev):

   -19.2335 -19.1842 -19.0805 -19.0635 -18.6766 -18.6419  -4.5254  -4.3438
    -4.2094  -4.1775  -4.1069  -4.0412  -3.6512  -3.5338  -3.4537  -3.3029
    -3.1811  -3.1033  -2.8163  -2.7575  -2.6439  -2.5752  -2.4890  -2.4585
     1.0813   1.1928   3.9046   3.9121   4.0076   4.2323   4.8417   4.8749
     6.1380   6.2452   6.9147   7.0611  11.1200  11.4537  11.8838  12.3468
    12.3831  12.4458  12.5277

          k = 0.2000 0.1928 0.4169 ( 11728 PWs)   bands (ev):

   -19.2339 -19.1838 -19.0804 -19.0636 -18.6772 -18.6413  -4.5240  -4.3422
    -4.2103  -4.1793  -4.1038  -4.0409  -3.6569  -3.5337  -3.4543  -3.3035
    -3.1824  -3.1023  -2.8198  -2.7556  -2.6411  -2.5738  -2.4877  -2.4594
     1.0823   1.1954   3.8983   3.9077   4.0126   4.2340   4.8420   4.8743
     6.1328   6.2471   6.9161   7.0584  11.1196  11.4544  11.9002  12.3449
    12.3959  12.4311  12.5899

          k = 0.2000 0.1928-0.1389 ( 11721 PWs)   bands (ev):

   -19.2699 -19.1369 -19.0945 -19.0499 -18.7117 -18.6170  -4.6865  -4.2678
    -4.2397  -4.1996  -4.0591  -3.8829  -3.8076  -3.4768  -3.4404  -3.2657
    -3.1034  -3.0418  -2.9843  -2.6967  -2.6144  -2.5453  -2.5354  -2.4758
     0.8874   1.1686   3.7351   4.2629   4.3967   4.4617   4.7989   4.8766
     5.9148   6.1564   6.5219   6.9191  10.7553  11.5013  11.5956  12.6096
    12.6402  12.7717  12.7900

          k = 0.2000 0.1928 0.0001 ( 11742 PWs)   bands (ev):

   -19.2828 -19.1152 -19.1016 -19.0447 -18.7269 -18.6085  -4.7488  -4.2907
    -4.2229  -4.2084  -3.9858  -3.9157  -3.8116  -3.4303  -3.3219  -3.3200
    -3.1632  -3.0218  -2.9984  -2.6644  -2.5768  -2.5726  -2.5452  -2.4938
     0.7933   1.1331   3.6525   4.5005   4.6274   4.7735   4.7818   4.8725
     5.6413   5.9448   6.3503   6.8551  10.6096  11.3588  11.6376  12.7682
    12.8064  12.8250  12.8938

          k = 0.2000 0.3857 0.1390 ( 11731 PWs)   bands (ev):

   -19.2086 -19.1442 -19.1008 -19.0723 -18.6975 -18.6593  -4.6329  -4.4349
    -4.3383  -4.2784  -4.0644  -3.9610  -3.7368  -3.5773  -3.2690  -3.2460
    -3.1774  -3.1023  -2.8403  -2.6546  -2.5452  -2.5329  -2.4904  -2.4855
     1.1744   1.2025   3.7318   4.2969   4.3941   4.5053   4.5731   4.6767
     6.3877   6.4123   6.7182   6.9732  10.8737  10.9068  11.6011  12.3433
    12.4967  12.5426  12.7244

          k = 0.2000 0.3857 0.2779 ( 11722 PWs)   bands (ev):

   -19.1837 -19.1547 -19.1039 -19.0883 -18.6833 -18.6691  -4.5202  -4.4562
    -4.2773  -4.2544  -4.1061  -4.0945  -3.6375  -3.5937  -3.3398  -3.3143
    -3.2214  -3.1652  -2.7012  -2.6490  -2.5654  -2.5470  -2.4792  -2.4701
     1.2480   1.2602   3.9537   4.1352   4.1696   4.2375   4.4456   4.5574
     6.5861   6.6057   7.0331   7.1407  11.1981  11.3804  11.7046  12.0185
    12.0778  12.2793  12.5388

          k = 0.2000 0.3857 0.4169 ( 11728 PWs)   bands (ev):

   -19.1840 -19.1546 -19.1038 -19.0882 -18.6836 -18.6689  -4.5203  -4.4555
    -4.2730  -4.2532  -4.1096  -4.0945  -3.6393  -3.5981  -3.3395  -3.3141
    -3.2215  -3.1645  -2.7020  -2.6491  -2.5628  -2.5462  -2.4793  -2.4705
     1.2512   1.2612   3.9477   4.1238   4.1683   4.2506   4.4417   4.5627
     6.5892   6.5999   7.0327   7.1388  11.2036  11.3803  11.6870  12.0376
    12.0790  12.2891  12.5712

          k = 0.2000 0.3857-0.1389 ( 11727 PWs)   bands (ev):

   -19.2088 -19.1443 -19.1006 -19.0722 -18.6977 -18.6591  -4.6322  -4.4350
    -4.3358  -4.2762  -4.0654  -3.9592  -3.7400  -3.5857  -3.2690  -3.2455
    -3.1783  -3.1016  -2.8388  -2.6552  -2.5432  -2.5303  -2.4906  -2.4863
     1.1780   1.2051   3.7293   4.2901   4.3850   4.4933   4.5862   4.6882
     6.3823   6.4111   6.7140   6.9767  10.8737  10.9034  11.6002  12.3383
    12.5061  12.5509  12.7733

          k = 0.2000 0.3857 0.0001 ( 11734 PWs)   bands (ev):

   -19.2181 -19.1462 -19.0928 -19.0659 -18.7038 -18.6559  -4.6865  -4.4629
    -4.3254  -4.2429  -4.0629  -3.9356  -3.8008  -3.5645  -3.2439  -3.1732
    -3.0936  -3.0534  -2.9669  -2.7080  -2.5248  -2.5033  -2.5032  -2.4999
     1.1360   1.1694   3.6447   4.2721   4.4625   4.6182   4.8550   4.9168
     6.0739   6.1265   6.6667   6.9128  10.7364  10.7673  11.4626  12.3394
    12.6101  12.6874  12.7105

          k = 0.4000 0.0000 0.2780 ( 11743 PWs)   bands (ev):

   -19.1849 -19.1502 -19.1046 -19.0858 -18.6874 -18.6704  -4.4767  -4.4146
    -4.1898  -4.1644  -4.1335  -4.0524  -3.5536  -3.5006  -3.4682  -3.4550
    -3.3957  -3.3796  -2.5883  -2.5691  -2.5631  -2.5407  -2.5023  -2.4824
     1.2785   1.3176   4.0528   4.0688   4.0981   4.1115   4.1369   4.1628
     7.0066   7.0539   7.0795   7.0955  11.5170  11.5952  12.0009  12.1115
    12.2329  12.4336  12.7760

          k = 0.4000 0.0000 0.4169 ( 11741 PWs)   bands (ev):

   -19.1860 -19.1486 -19.1051 -19.0857 -18.6886 -18.6693  -4.4762  -4.4108
    -4.1806  -4.1791  -4.1449  -4.0370  -3.5544  -3.5040  -3.4685  -3.4584
    -3.3863  -3.3859  -2.5960  -2.5715  -2.5552  -2.5375  -2.4943  -2.4896
     1.2812   1.3177   4.0431   4.0687   4.0947   4.1109   4.1214   4.1886
     6.9943   7.0592   7.0872   7.0917  11.5095  11.5995  12.0272  12.1132
    12.2550  12.4381  12.7415

          k = 0.4000 0.0000 0.5559 ( 11721 PWs)   bands (ev):

   -19.2137 -19.1301 -19.1067 -19.0691 -18.7062 -18.6572  -4.5683  -4.3734
    -4.2308  -4.2171  -4.1695  -3.9811  -3.6610  -3.5435  -3.4688  -3.3017
    -3.2942  -3.1696  -2.6791  -2.6600  -2.5725  -2.5651  -2.4751  -2.4686
     1.1607   1.2516   3.9363   4.0276   4.1516   4.2405   4.4687   4.5265
     6.5706   6.6472   6.9311   7.1589  11.4612  11.5116  11.8214  11.9636
    12.2544  12.5654  12.5994

          k = 0.4000 0.0000 0.0001 ( 11711 PWs)   bands (ev):

   -19.2237 -19.1338 -19.0959 -19.0626 -18.7136 -18.6533  -4.6154  -4.3708
    -4.2553  -4.2330  -4.1408  -3.9729  -3.7254  -3.5737  -3.4441  -3.2516
    -3.1632  -3.0393  -2.7801  -2.6949  -2.6269  -2.5811  -2.4589  -2.4522
     1.0977   1.2071   3.8934   4.0054   4.1722   4.2467   4.7923   4.8663
     6.1893   6.2899   6.9104   7.1824  11.3532  11.5329  11.7374  11.9050
    12.2447  12.5259  12.5959

          k = 0.4000 0.0000 0.1391 ( 11720 PWs)   bands (ev):

   -19.2131 -19.1315 -19.1061 -19.0691 -18.7054 -18.6579  -4.5706  -4.3780
    -4.2213  -4.2107  -4.1731  -3.9922  -3.6605  -3.5411  -3.4585  -3.3045
    -3.2986  -3.1663  -2.6802  -2.6552  -2.5727  -2.5705  -2.4748  -2.4703
     1.1577   1.2505   3.9514   4.0157   4.1644   4.2240   4.4761   4.5254
     6.5702   6.6501   6.9389   7.1514  11.4435  11.5092  11.8766  11.9532
    12.2402  12.5313  12.5770

          k = 0.4000 0.1928 0.2780 ( 11729 PWs)   bands (ev):

   -19.1693 -19.1371 -19.1053 -19.0869 -18.7004 -18.6857  -4.5564  -4.5165
    -4.3028  -4.2406  -4.0736  -4.0681  -3.6543  -3.6119  -3.3404  -3.3174
    -3.2428  -3.1886  -2.6676  -2.5864  -2.5391  -2.5200  -2.4893  -2.4823
     1.2368   1.2494   3.9503   4.1538   4.2284   4.2706   4.4331   4.5458
     6.6000   6.6213   7.0861   7.1892  11.2252  11.3568  11.7924  12.0170
    12.1161  12.2705  12.4936

          k = 0.4000 0.1928 0.4169 ( 11732 PWs)   bands (ev):

   -19.1702 -19.1358 -19.1056 -19.0870 -18.7015 -18.6847  -4.5599  -4.5118
    -4.2927  -4.2525  -4.0778  -4.0614  -3.6530  -3.6167  -3.3385  -3.3170
    -3.2481  -3.1863  -2.6704  -2.5813  -2.5341  -2.5228  -2.4954  -2.4787
     1.2424   1.2463   3.9428   4.1572   4.2308   4.2673   4.4365   4.5446
     6.6076   6.6108   7.0885   7.1868  11.2259  11.3422  11.8379  12.0006
    12.0921  12.3088  12.4739

          k = 0.4000 0.1928 0.5559 ( 11723 PWs)   bands (ev):

   -19.1956 -19.1235 -19.1035 -19.0714 -18.7164 -18.6740  -4.6393  -4.4583
    -4.3650  -4.3315  -4.0432  -3.9432  -3.7462  -3.5901  -3.2783  -3.2511
    -3.1757  -3.1158  -2.8290  -2.6242  -2.5375  -2.5167  -2.4706  -2.4600
     1.1799   1.1970   3.7287   4.3096   4.3672   4.5208   4.6138   4.6887
     6.4307   6.4692   6.7273   6.9956  10.8958  10.9087  11.7005  12.3807
    12.4783  12.4845  12.6971

          k = 0.4000 0.1928 0.0001 ( 11726 PWs)   bands (ev):

   -19.2048 -19.1288 -19.0922 -19.0653 -18.7226 -18.6705  -4.6876  -4.4536
    -4.3839  -4.3046  -4.0492  -3.9411  -3.8028  -3.5504  -3.2740  -3.1352
    -3.1093  -3.0345  -2.9795  -2.7044  -2.5287  -2.5251  -2.4560  -2.4415
     1.1434   1.1669   3.6452   4.2846   4.4342   4.5957   4.8887   4.9541
     6.1466   6.1943   6.6708   6.9141  10.7502  10.7909  11.5623  12.4587
    12.5068  12.5886  12.6270

          k = 0.4000 0.1928 0.1391 ( 11718 PWs)   bands (ev):

   -19.1951 -19.1242 -19.1035 -19.0713 -18.7157 -18.6746  -4.6388  -4.4642
    -4.3583  -4.3353  -4.0382  -3.9498  -3.7476  -3.5828  -3.2719  -3.2537
    -3.1779  -3.1146  -2.8303  -2.6258  -2.5410  -2.5129  -2.4683  -2.4640
     1.1753   1.1977   3.7320   4.3204   4.3578   4.5213   4.6120   4.6903
     6.4350   6.4675   6.7354   6.9879  10.8976  10.9069  11.7139  12.3843
    12.4489  12.4982  12.6827

          k = 0.4000 0.3857 0.2780 ( 11731 PWs)   bands (ev):

   -19.1363 -19.1156 -19.1071 -19.0925 -18.7208 -18.7145  -4.6925  -4.6867
    -4.3426  -4.2848  -4.0472  -3.9843  -3.8362  -3.7969  -3.1335  -3.1042
    -3.0483  -3.0192  -2.7095  -2.6288  -2.5495  -2.5108  -2.4885  -2.4853
     1.1630   1.1673   4.2837   4.3818   4.4389   4.6148   4.6697   4.8734
     6.1020   6.1650   6.9104   6.9902  10.7508  10.7785  11.4998  11.5183
    12.5781  12.6335  12.7163

          k = 0.4000 0.3857 0.4169 ( 11731 PWs)   bands (ev):

   -19.1367 -19.1158 -19.1065 -19.0926 -18.7213 -18.7140  -4.6938  -4.6857
    -4.3391  -4.2866  -4.0394  -3.9888  -3.8338  -3.8060  -3.1328  -3.1040
    -3.0491  -3.0190  -2.7112  -2.6286  -2.5417  -2.5067  -2.4954  -2.4874
     1.1608   1.1718   4.2658   4.3864   4.4537   4.6116   4.6693   4.8731
     6.1131   6.1522   6.9170   6.9819  10.7454  10.7797  11.5144  11.5201
    12.5721  12.6422  12.7599

          k = 0.4000 0.3857 0.5559 ( 11725 PWs)   bands (ev):

   -19.1553 -19.1255 -19.0908 -19.0783 -18.7275 -18.7092  -4.6517  -4.6070
    -4.5102  -4.4733  -4.0140  -3.9679  -3.7348  -3.6239  -3.1151  -3.0855
    -3.0543  -2.9917  -2.9102  -2.7545  -2.4895  -2.4533  -2.4459  -2.4425
     1.1158   1.1371   4.0669   4.5057   4.6659   4.7765   4.8916   5.0474
     6.0215   6.1655   6.4636   6.6758  10.1801  10.1901  11.8291  11.9501
    12.5134  12.5739  12.6142

          k = 0.4000 0.3857 0.0001 ( 11717 PWs)   bands (ev):

   -19.1622 -19.1307 -19.0831 -19.0728 -18.7299 -18.7075  -4.6635  -4.5449
    -4.5406  -4.5114  -4.0981  -4.0591  -3.6284  -3.4000  -3.0935  -3.0922
    -3.0437  -3.0387  -2.9797  -2.8819  -2.4511  -2.4340  -2.4289  -2.4208
     1.0905   1.1137   3.9840   4.4444   4.8454   5.0744   5.1147   5.1269
     5.9199   6.0186   6.2252   6.4483   9.9684   9.9795  11.7627  12.0019
    12.4368  12.4500  12.5305

          k = 0.4000 0.3857 0.1391 ( 11722 PWs)   bands (ev):

   -19.1551 -19.1254 -19.0911 -19.0783 -18.7272 -18.7094  -4.6494  -4.6076
    -4.5142  -4.4734  -4.0182  -3.9670  -3.7333  -3.6153  -3.1158  -3.0864
    -3.0532  -2.9918  -2.9119  -2.7549  -2.4938  -2.4570  -2.4426  -2.4393
     1.1160   1.1333   4.0703   4.5053   4.6726   4.7777   4.8841   5.0480
     6.0191   6.1734   6.4599   6.6779  10.1835  10.1902  11.8315  11.9366
    12.5136  12.5345  12.6098

     the Fermi energy is     8.4310 ev

!    total energy              =    -386.32783982 Ry
     estimated scf accuracy    <          2.7E-10 Ry
     smearing contrib. (-TS)   =       0.00000000 Ry
     internal energy E=F+TS    =    -386.32783982 Ry

     The total energy is F=E-TS. E is the sum of the following terms:
     one-electron contribution =     -31.92061771 Ry
     hartree contribution      =      45.48395945 Ry
     xc contribution           =     -60.55606938 Ry
     ewald contribution        =    -269.91930572 Ry
     one-center paw contrib.   =     -69.41580646 Ry

     convergence has been achieved in   9 iterations

     Forces acting on atoms (cartesian axes, Ry/au):

     atom    1 type  3   force =     0.00002135    0.00077145    0.00018135
     atom    2 type  3   force =    -0.00002135   -0.00077145   -0.00018135
     atom    3 type  3   force =    -0.00002135    0.00077145   -0.00018135
     atom    4 type  3   force =     0.00002135   -0.00077145    0.00018135
     atom    5 type  3   force =    -0.00000000   -0.00000000    0.00000000
     atom    6 type  3   force =     0.00000000   -0.00000000    0.00000000
     atom    7 type  1   force =     0.00000000    0.00000000    0.00000000
     atom    8 type  1   force =    -0.00000000    0.00000000   -0.00000000
     atom    9 type  2   force =    -0.00021191   -0.00094584    0.00055432
     atom   10 type  2   force =     0.00021191    0.00094584   -0.00055432
     atom   11 type  2   force =     0.00021191   -0.00094584   -0.00055432
     atom   12 type  2   force =    -0.00021191    0.00094584    0.00055432
     atom   13 type  2   force =     0.00060753   -0.00076371    0.00029779
     atom   14 type  2   force =    -0.00060753    0.00076371   -0.00029779
     atom   15 type  2   force =    -0.00060753   -0.00076371   -0.00029779
     atom   16 type  2   force =     0.00060753    0.00076371    0.00029779
     atom   17 type  2   force =    -0.00070972   -0.00024243    0.00000926
     atom   18 type  2   force =     0.00070972    0.00024243   -0.00000926
     atom   19 type  2   force =     0.00070972   -0.00024243   -0.00000926
     atom   20 type  2   force =    -0.00070972    0.00024243    0.00000926

     Total force =     0.003730     Total SCF correction =     0.000010


     Computing stress (Cartesian axis) and pressure

          total   stress  (Ry/bohr**3)                   (kbar)     P=      249.27
   0.00173557   0.00000000   0.00000240          255.31        0.00        0.35
   0.00000000   0.00165194   0.00000000            0.00      243.01        0.00
   0.00000240   0.00000000   0.00169604            0.35        0.00      249.50


     BFGS Geometry Optimization
     Energy error            =      0.0E+00 Ry
     Gradient error          =      9.5E-04 Ry/Bohr
     Cell gradient error     =      2.6E+02 kbar

     number of scf cycles    =   1
     number of bfgs steps    =   0

     enthalpy           new  =    -386.3278398183 Ry

     new trust radius        =       0.3354631817 bohr
     new conv_thr            =       0.0000000100 Ry

     new unit-cell volume =   1692.46718 a.u.^3 (   250.79776 Ang^3 )
     density =      3.83264 g/cm^3

CELL_PARAMETERS (alat= 10.00307627)
   1.043389292   0.000000000   0.000059879
   0.000000000   1.080014272   0.000000000
  -1.043756617   0.000000000   1.500466516

ATOMIC_POSITIONS (crystal)
Rb            0.2472243753        0.5014430415        0.2476854459
Rb            0.7527756247        0.4985569585        0.7523145541
Rb            0.7527756247        0.0014430415        0.2523145541
Rb            0.2472243753        0.9985569585        0.7476854459
Rb            0.5000000000       -0.0000000000        0.5000000000
Rb            0.5000000000        0.5000000000        0.0000000000
Al            0.0000000000        0.0000000000        0.0000000000
Al            0.0000000000        0.5000000000        0.5000000000
H             0.2222499386        0.4879781228        0.7124168273
H             0.7777500614        0.5120218772        0.2875831727
H             0.7777500614       -0.0120218772        0.7875831727
H             0.2222499386        1.0120218772        0.2124168273
H             0.2042579583        0.2906244722        0.4887869238
H             0.7957420417        0.7093755278        0.5112130762
H             0.7957420417        0.7906244722        1.0112130762
H             0.2042579583        0.2093755278       -0.0112130762
H             0.2217764354        0.7050526407        0.5008944822
H             0.7782235646        0.2949473593        0.4991055178
H             0.7782235646        0.2050526407        0.9991055178
H             0.2217764354        0.7949473593        0.0008944822



     Writing output data file ./Rb3AlH6.save/
     NEW-OLD atomic charge density approx. for the potential
     extrapolated charge   80.40858, renormalised to   72.00000

     total cpu time spent up to now is       75.8 secs

     Self-consistent Calculation

     iteration #  1     ecut=    60.00 Ry     beta= 0.70
     Davidson diagonalization with overlap
     c_bands:  2 eigenvalues not converged
     c_bands:  2 eigenvalues not converged
     c_bands:  4 eigenvalues not converged
     c_bands:  2 eigenvalues not converged
     c_bands:  1 eigenvalues not converged
     c_bands:  2 eigenvalues not converged
     c_bands:  1 eigenvalues not converged
     c_bands:  1 eigenvalues not converged
     c_bands:  1 eigenvalues not converged
     c_bands:  1 eigenvalues not converged
     c_bands:  2 eigenvalues not converged
     c_bands:  3 eigenvalues not converged
     c_bands:  2 eigenvalues not converged
     c_bands:  1 eigenvalues not converged
     c_bands:  1 eigenvalues not converged
     c_bands:  1 eigenvalues not converged
     c_bands:  1 eigenvalues not converged
     c_bands:  1 eigenvalues not converged
     c_bands:  2 eigenvalues not converged
     c_bands:  2 eigenvalues not converged
     c_bands:  2 eigenvalues not converged
     c_bands:  3 eigenvalues not converged
     c_bands:  1 eigenvalues not converged
     c_bands:  1 eigenvalues not converged
     ethr =  1.00E-06,  avg # of iterations = 18.4

     total cpu time spent up to now is       93.5 secs

     total energy              =    -385.67697674 Ry
     estimated scf accuracy    <       0.47616768 Ry

     iteration #  2     ecut=    60.00 Ry     beta= 0.70
     Davidson diagonalization with overlap
     ethr =  6.61E-04,  avg # of iterations =  3.2

     total cpu time spent up to now is      101.3 secs

     total energy              =    -386.60446119 Ry
     estimated scf accuracy    <       0.96752024 Ry

     iteration #  3     ecut=    60.00 Ry     beta= 0.70
     Davidson diagonalization with overlap
     ethr =  6.61E-04,  avg # of iterations =  2.0

     total cpu time spent up to now is      106.9 secs

     total energy              =    -386.62074200 Ry
     estimated scf accuracy    <       0.20531968 Ry

     iteration #  4     ecut=    60.00 Ry     beta= 0.70
     Davidson diagonalization with overlap
     ethr =  2.85E-04,  avg # of iterations =  1.2

     total cpu time spent up to now is      111.8 secs

     total energy              =    -386.56516209 Ry
     estimated scf accuracy    <       0.10574294 Ry

     iteration #  5     ecut=    60.00 Ry     beta= 0.70
     Davidson diagonalization with overlap
     ethr =  1.47E-04,  avg # of iterations =  2.0

     total cpu time spent up to now is      118.4 secs

     total energy              =    -386.58092812 Ry
     estimated scf accuracy    <       0.00194438 Ry

     iteration #  6     ecut=    60.00 Ry     beta= 0.70
     Davidson diagonalization with overlap
     ethr =  2.70E-06,  avg # of iterations = 11.6

     total cpu time spent up to now is      128.9 secs

     total energy              =    -386.58204108 Ry
     estimated scf accuracy    <       0.00033187 Ry

     iteration #  7     ecut=    60.00 Ry     beta= 0.70
     Davidson diagonalization with overlap
     ethr =  4.61E-07,  avg # of iterations =  2.0

     total cpu time spent up to now is      134.5 secs

     total energy              =    -386.58205084 Ry
     estimated scf accuracy    <       0.00006330 Ry

     iteration #  8     ecut=    60.00 Ry     beta= 0.70
     Davidson diagonalization with overlap
     ethr =  8.79E-08,  avg # of iterations =  2.0

     total cpu time spent up to now is      139.9 secs

     total energy              =    -386.58204124 Ry
     estimated scf accuracy    <       0.00002166 Ry

     iteration #  9     ecut=    60.00 Ry     beta= 0.70
     Davidson diagonalization with overlap
     ethr =  3.01E-08,  avg # of iterations =  2.0

     total cpu time spent up to now is      146.5 secs

     total energy              =    -386.58204583 Ry
     estimated scf accuracy    <       0.00000003 Ry

     iteration # 10     ecut=    60.00 Ry     beta= 0.70
     Davidson diagonalization with overlap
     ethr =  4.49E-11,  avg # of iterations =  5.5

     total cpu time spent up to now is      154.8 secs

     total energy              =    -386.58204586 Ry
     estimated scf accuracy    <       0.00000007 Ry

     iteration # 11     ecut=    60.00 Ry     beta= 0.70
     Davidson diagonalization with overlap
     ethr =  4.49E-11,  avg # of iterations =  2.0

     total cpu time spent up to now is      161.2 secs

     End of self-consistent calculation

          k = 0.0000 0.0000 0.0000 ( 11707 PWs)   bands (ev):

   -20.5336 -20.4228 -20.3912 -20.3577 -20.0012 -19.9194  -5.5152  -5.4573
    -5.1638  -4.9581  -4.8776  -4.8175  -4.8133  -4.8132  -4.7976  -4.5474
    -4.4087  -4.3704  -4.3216  -4.1157  -4.0667  -4.0161  -3.8655  -3.8243
    -0.7634   0.0012   3.1625   3.4191   3.4219   3.4305   3.8446   3.9126
     4.4750   4.4793   4.6123   5.0172   8.5390   9.8195  10.6392  11.1545
    11.1808  11.1949  11.3545

          k =-0.0000 0.0000 0.1333 ( 11735 PWs)   bands (ev):

   -20.5245 -20.4358 -20.3875 -20.3607 -19.9916 -19.9259  -5.4812  -5.4224
    -5.1170  -5.0723  -4.9870  -4.8861  -4.7739  -4.7229  -4.6531  -4.5413
    -4.4365  -4.3919  -4.3700  -4.1555  -4.0828  -3.9878  -3.8816  -3.8335
    -0.6181   0.0190   2.8691   3.1044   3.4650   3.4653   3.8010   3.8623
     4.5237   4.7592   4.8961   4.9568   8.7504  10.0831  10.8301  10.9846
    11.1507  11.1637  11.2094

          k =-0.0000 0.0000 0.2666 ( 11742 PWs)   bands (ev):

   -20.4996 -20.4661 -20.3789 -20.3688 -19.9687 -19.9439  -5.3842  -5.3220
    -5.2389  -5.1693  -5.0093  -4.9218  -4.6582  -4.6085  -4.5416  -4.5240
    -4.5094  -4.4616  -4.4505  -4.3414  -4.0069  -3.9312  -3.9242  -3.8663
    -0.2914  -0.0320   2.5546   2.6681   3.5636   3.5827   3.6918   3.7344
     4.6452   4.8092   5.1272   5.1995   9.3396  10.1704  10.7254  11.1146
    11.1184  11.2538  11.3109

          k = 0.0000 0.1852 0.0000 ( 11731 PWs)   bands (ev):

   -20.5174 -20.4165 -20.4009 -20.3637 -19.9979 -19.9303  -5.4921  -5.4625
    -5.0402  -5.0375  -5.0348  -5.0093  -4.7977  -4.7764  -4.6423  -4.6239
    -4.4493  -4.3491  -4.2006  -4.1359  -4.0207  -4.0020  -3.9146  -3.8439
    -0.5025   0.0418   3.1379   3.1864   3.2701   3.4861   3.5062   3.6267
     4.6633   4.7467   4.9348   5.4181   8.9275  10.3050  10.6670  10.6788
    11.2736  11.3110  11.3729

          k =-0.0000 0.1852 0.1333 ( 11719 PWs)   bands (ev):

   -20.5091 -20.4290 -20.3958 -20.3670 -19.9901 -19.9357  -5.4485  -5.4312
    -5.0947  -5.0806  -5.0264  -4.9931  -4.7751  -4.7286  -4.7151  -4.5764
    -4.4786  -4.4029  -4.1773  -4.1537  -4.0411  -3.9751  -3.9182  -3.8483
    -0.3900   0.0643   2.9870   3.1617   3.2063   3.2164   3.4726   3.5917
     4.9542   4.9751   5.0329   5.3650   9.0944  10.4186  10.6633  10.8136
    11.1550  11.2032  11.3543

          k =-0.0000 0.1852 0.2666 ( 11728 PWs)   bands (ev):

   -20.4866 -20.4564 -20.3863 -20.3755 -19.9713 -19.9507  -5.3430  -5.3336
    -5.2149  -5.1948  -5.0083  -4.9870  -4.7111  -4.6982  -4.6422  -4.5875
    -4.5519  -4.5303  -4.1873  -4.1839  -4.0067  -3.9464  -3.9178  -3.8702
    -0.1393   0.0458   2.6760   2.7636   3.2917   3.3231   3.3900   3.4772
     5.0860   5.2341   5.3259   5.3677   9.5452  10.1090  10.9196  11.0061
    11.1450  11.1595  11.3082

          k = 0.0000 0.3704 0.0000 ( 11780 PWs)   bands (ev):

   -20.4767 -20.4313 -20.3999 -20.3798 -19.9834 -19.9568  -5.4386  -5.3228
    -5.2593  -5.1485  -5.1212  -5.0367  -4.8482  -4.6898  -4.6784  -4.5535
    -4.4955  -4.4005  -4.1562  -4.0243  -3.9664  -3.9579  -3.9465  -3.8958
    -0.0548   0.1001   2.8413   2.9940   3.0853   3.1082   3.4910   3.5772
     4.9317   4.9554   5.6046   5.8191   9.8697  10.0317  10.2516  10.8319
    10.8402  11.0606  11.1079

          k =-0.0000 0.3704 0.1333 ( 11759 PWs)   bands (ev):

   -20.4708 -20.4305 -20.4038 -20.3838 -19.9803 -19.9588  -5.3988  -5.3018
    -5.2464  -5.1561  -5.1168  -5.0682  -4.7970  -4.6892  -4.6763  -4.5828
    -4.5824  -4.4771  -4.1021  -4.0154  -3.9635  -3.9580  -3.9376  -3.8881
     0.0095   0.1394   2.8681   3.0050   3.0474   3.0979   3.2502   3.3019
     5.2312   5.2494   5.6247   5.7983   9.9638  10.0134  10.3269  10.8774
    10.9432  11.0693  11.1171

          k =-0.0000 0.3704 0.2666 ( 11716 PWs)   bands (ev):

   -20.4554 -20.4375 -20.4039 -20.3938 -19.9728 -19.9646  -5.3108  -5.2529
    -5.2481  -5.1893  -5.0917  -5.0890  -4.7217  -4.6926  -4.6883  -4.6651
    -4.6441  -4.6199  -4.0430  -4.0240  -3.9662  -3.9553  -3.9008  -3.8823
     0.1388   0.1920   2.8561   2.8612   3.0222   3.0362   3.0687   3.0760
     5.6178   5.6267   5.6779   5.7442  10.0236  10.0857  10.5074  10.9172
    11.0008  11.0220  11.0649

          k = 0.1917 0.0000 0.1333 ( 11722 PWs)   bands (ev):

   -20.5058 -20.4272 -20.3927 -20.3666 -19.9952 -19.9397  -5.5116  -5.3622
    -5.1728  -5.0571  -5.0382  -4.9778  -4.8346  -4.7112  -4.6819  -4.6092
    -4.4395  -4.4009  -4.1159  -4.1113  -4.0646  -4.0024  -3.9019  -3.8804
    -0.3783   0.0630   3.0076   3.1599   3.2105   3.2128   3.5177   3.5312
     4.9716   4.9856   5.0629   5.3538   9.1376  10.4437  10.7092  10.8060
    11.0466  11.2656  11.2786

          k = 0.1917 0.0000 0.2666 ( 11735 PWs)   bands (ev):

   -20.4833 -20.4537 -20.3846 -20.3746 -19.9759 -19.9551  -5.4014  -5.2715
    -5.2645  -5.1350  -5.0441  -5.0373  -4.7491  -4.7004  -4.6322  -4.5868
    -4.5368  -4.5036  -4.1409  -4.1386  -3.9960  -3.9494  -3.9375  -3.8936
    -0.1397   0.0381   2.7068   2.7908   3.2988   3.2993   3.4240   3.4301
     5.0823   5.2237   5.3550   5.4010   9.5720  10.1476  11.0222  11.0383
    11.0465  11.1195  11.2408

          k = 0.1917 0.0000 0.3999 ( 11737 PWs)   bands (ev):

   -20.4835 -20.4534 -20.3846 -20.3747 -19.9763 -19.9548  -5.3978  -5.2751
    -5.2661  -5.1294  -5.0441  -5.0391  -4.7562  -4.6942  -4.6318  -4.5910
    -4.5381  -4.5015  -4.1409  -4.1400  -3.9995  -3.9458  -3.9321  -3.8964
    -0.1404   0.0410   2.7043   2.7915   3.2909   3.3084   3.4149   3.4361
     5.0770   5.2285   5.3600   5.3948   9.5771  10.1388  10.9645  11.0441
    11.0774  11.1748  11.2097

          k = 0.1917 0.0000-0.1332 ( 11720 PWs)   bands (ev):

   -20.5059 -20.4271 -20.3926 -20.3666 -19.9954 -19.9395  -5.5091  -5.3641
    -5.1698  -5.0643  -5.0347  -4.9708  -4.8399  -4.7097  -4.6883  -4.6084
    -4.4388  -4.4020  -4.1157  -4.1156  -4.0668  -3.9955  -3.8991  -3.8814
    -0.3779   0.0658   3.0072   3.1515   3.2157   3.2161   3.5119   3.5305
     4.9680   4.9870   5.0611   5.3564   9.1398  10.4424  10.7145  10.7942
    11.0632  11.2700  11.3463

          k = 0.1917 0.0000 0.0000 ( 11757 PWs)   bands (ev):

   -20.5141 -20.4163 -20.3958 -20.3636 -20.0033 -19.9340  -5.5528  -5.3956
    -5.1240  -5.0960  -5.0318  -4.8717  -4.8577  -4.7727  -4.6832  -4.6109
    -4.4147  -4.3408  -4.1240  -4.1035  -4.0958  -3.9954  -3.8903  -3.8844
    -0.4844   0.0464   3.1209   3.1767   3.2846   3.5021   3.5518   3.5605
     4.6963   4.7766   4.9299   5.4072   8.9816  10.3204  10.5804  10.8981
    11.0566  11.3156  11.3888

          k = 0.1917 0.1852 0.1333 ( 11723 PWs)   bands (ev):

   -20.4919 -20.4213 -20.3985 -20.3715 -19.9954 -19.9493  -5.5538  -5.2417
    -5.2283  -5.1948  -5.0950  -4.9641  -4.9083  -4.6852  -4.6402  -4.5339
    -4.4220  -4.3820  -4.2447  -4.0631  -3.9893  -3.9444  -3.9325  -3.8890
    -0.2133   0.0780   2.7323   3.1230   3.2837   3.2960   3.5822   3.6132
     4.8255   4.8923   5.2732   5.5919   9.4693  10.1503  10.2063  10.8355
    11.1511  11.2613  11.3214

          k = 0.1917 0.1852 0.2666 ( 11729 PWs)   bands (ev):

   -20.4715 -20.4449 -20.3900 -20.3798 -19.9795 -19.9622  -5.4301  -5.2956
    -5.1987  -5.1770  -5.1277  -5.0773  -4.8005  -4.7154  -4.6726  -4.5642
    -4.4762  -4.4230  -4.1332  -4.0967  -4.0033  -3.9551  -3.9090  -3.8881
    -0.0416   0.0755   2.8210   2.8268   2.9864   3.1351   3.6031   3.6173
     4.9776   5.0312   5.5895   5.6914   9.7950  10.0801  10.5456  10.8964
    10.9325  10.9866  11.1176

          k = 0.1917 0.1852 0.3999 ( 11728 PWs)   bands (ev):

   -20.4717 -20.4447 -20.3900 -20.3798 -19.9798 -19.9619  -5.4291  -5.2942
    -5.1992  -5.1793  -5.1253  -5.0764  -4.8043  -4.7156  -4.6726  -4.5646
    -4.4770  -4.4224  -4.1356  -4.0956  -4.0016  -3.9538  -3.9079  -3.8891
    -0.0408   0.0770   2.8175   2.8249   2.9909   3.1333   3.6033   3.6167
     4.9745   5.0319   5.5903   5.6908   9.7960  10.0791  10.5611  10.8761
    10.9592  10.9777  11.1736

          k = 0.1917 0.1852-0.1332 ( 11721 PWs)   bands (ev):

   -20.4920 -20.4212 -20.3984 -20.3716 -19.9956 -19.9491  -5.5527  -5.2426
    -5.2252  -5.1971  -5.0910  -4.9621  -4.9133  -4.6868  -4.6433  -4.5348
    -4.4228  -4.3816  -4.2447  -4.0629  -3.9884  -3.9441  -3.9296  -3.8896
    -0.2120   0.0800   2.7306   3.1221   3.2839   3.2940   3.5823   3.6125
     4.8246   4.8887   5.2712   5.5958   9.4707  10.1493  10.2138  10.8450
    11.1570  11.2653  11.2898

          k = 0.1917 0.1852 0.0000 ( 11742 PWs)   bands (ev):

   -20.4994 -20.4111 -20.4023 -20.3684 -20.0020 -19.9445  -5.6004  -5.2605
    -5.2166  -5.2039  -5.0268  -5.0024  -4.9136  -4.6561  -4.5729  -4.5715
    -4.3680  -4.3534  -4.3437  -4.0456  -3.9663  -3.9627  -3.9393  -3.8892
    -0.2912   0.0597   2.6726   3.3447   3.3941   3.5670   3.5736   3.6085
     4.6396   4.6800   5.1283   5.5593   9.3403  10.0902  10.1568  10.7249
    11.2606  11.2786  11.5768

          k = 0.1917 0.3704 0.1333 ( 11731 PWs)   bands (ev):

   -20.4580 -20.4235 -20.4021 -20.3850 -19.9894 -19.9710  -5.5090  -5.3620
    -5.3017  -5.2535  -5.0915  -5.0230  -4.8675  -4.7266  -4.5380  -4.5214
    -4.4730  -4.4218  -4.1694  -4.0311  -3.9488  -3.9328  -3.8990  -3.8937
     0.0398   0.1050   2.6993   3.1550   3.2381   3.3596   3.3968   3.4472
     5.0884   5.2033   5.3851   5.6405   9.5524   9.6157  10.2893  11.0253
    11.1353  11.1600  11.2949

          k = 0.1917 0.3704 0.2666 ( 11722 PWs)   bands (ev):

   -20.4439 -20.4277 -20.4040 -20.3944 -19.9830 -19.9761  -5.4176  -5.3710
    -5.2580  -5.2401  -5.1191  -5.1131  -4.8021  -4.7648  -4.5878  -4.5707
    -4.5017  -4.4626  -4.0631  -4.0205  -3.9506  -3.9425  -3.9010  -3.8955
     0.1176   0.1444   2.8554   3.0158   3.0891   3.1043   3.2769   3.3649
     5.2878   5.3256   5.6684   5.7599   9.8707  10.0365  10.3584  10.6611
    10.7596  10.9054  11.1188

          k = 0.1917 0.3704 0.3999 ( 11728 PWs)   bands (ev):

   -20.4440 -20.4277 -20.4039 -20.3943 -19.9831 -19.9760  -5.4180  -5.3706
    -5.2544  -5.2393  -5.1215  -5.1128  -4.8035  -4.7679  -4.5874  -4.5705
    -4.5019  -4.4621  -4.0636  -4.0204  -3.9489  -3.9413  -3.9017  -3.8959
     0.1195   0.1449   2.8491   3.0215   3.0886   3.1013   3.2725   3.3703
     5.2919   5.3199   5.6697   5.7579   9.8751  10.0414  10.3358  10.6768
    10.7593  10.9181  11.1462

          k = 0.1917 0.3704-0.1332 ( 11727 PWs)   bands (ev):

   -20.4581 -20.4235 -20.4019 -20.3850 -19.9894 -19.9709  -5.5086  -5.3625
    -5.2996  -5.2515  -5.0920  -5.0216  -4.8701  -4.7323  -4.5379  -4.5212
    -4.4737  -4.4213  -4.1685  -4.0311  -3.9475  -3.9310  -3.8999  -3.8940
     0.0420   0.1065   2.6963   3.1528   3.2402   3.3563   3.3879   3.4571
     5.0877   5.2022   5.3830   5.6423   9.5521   9.6120  10.2863  11.0201
    11.1289  11.1630  11.3456

          k = 0.1917 0.3704 0.0000 ( 11734 PWs)   bands (ev):

   -20.4634 -20.4254 -20.3976 -20.3813 -19.9920 -19.9691  -5.5518  -5.3892
    -5.2904  -5.2256  -5.0934  -5.0081  -4.9095  -4.7047  -4.5226  -4.4711
    -4.4161  -4.3898  -4.2586  -4.0687  -3.9371  -3.9153  -3.9067  -3.8945
     0.0005   0.0785   2.6364   3.1294   3.2985   3.4573   3.5924   3.6675
     4.8656   4.9359   5.3501   5.5972   9.4450   9.4659  10.1699  10.9861
    11.2302  11.2693  11.3573

          k = 0.3834 0.0000 0.2667 ( 11743 PWs)   bands (ev):

   -20.4448 -20.4256 -20.4041 -20.3928 -19.9850 -19.9769  -5.3844  -5.3374
    -5.1910  -5.1755  -5.1434  -5.0833  -4.7414  -4.6999  -4.6731  -4.6657
    -4.6225  -4.6102  -3.9741  -3.9735  -3.9550  -3.9521  -3.9117  -3.9002
     0.1337   0.1825   2.8762   2.8961   3.0366   3.0501   3.0642   3.0930
     5.6463   5.6988   5.7073   5.7124  10.1188  10.2021  10.5798  10.8279
    10.8820  11.0585  11.2027

          k = 0.3833 0.0000 0.4000 ( 11741 PWs)   bands (ev):

   -20.4453 -20.4248 -20.4044 -20.3928 -19.9856 -19.9763  -5.3838  -5.3344
    -5.1871  -5.1836  -5.1522  -5.0718  -4.7417  -4.7025  -4.6748  -4.6669
    -4.6161  -4.6142  -3.9786  -3.9757  -3.9503  -3.9498  -3.9088  -3.9025
     0.1356   0.1822   2.8637   2.9031   3.0497   3.0497   3.0663   3.0815
     5.6403   5.7006   5.7103   5.7121  10.1131  10.2123  10.6015  10.8194
    10.9069  11.0444  11.1978

          k = 0.3833 0.0000 0.5332 ( 11721 PWs)   bands (ev):

   -20.4608 -20.4163 -20.4055 -20.3831 -19.9934 -19.9700  -5.4593  -5.3151
    -5.2173  -5.2093  -5.1692  -5.0300  -4.8186  -4.7237  -4.6793  -4.5583
    -4.5523  -4.4643  -4.0474  -4.0183  -3.9659  -3.9509  -3.9034  -3.8909
     0.0265   0.1432   2.8230   3.0026   3.0275   3.1138   3.2884   3.3624
     5.3146   5.3345   5.5915   5.7594  10.1072  10.1104  10.4379  10.6662
    10.8313  11.1182  11.1622

          k = 0.3834 0.0000 0.0001 ( 11711 PWs)   bands (ev):

   -20.4665 -20.4193 -20.3995 -20.3793 -19.9964 -19.9679  -5.4971  -5.3205
    -5.2325  -5.2199  -5.1444  -5.0238  -4.8657  -4.7409  -4.6653  -4.5287
    -4.4645  -4.3800  -4.1088  -4.0387  -3.9940  -3.9577  -3.8955  -3.8820
    -0.0285   0.1119   2.8001   2.9935   3.0324   3.1290   3.5341   3.6242
     5.0200   5.0433   5.5744   5.7774  10.0249  10.1406  10.3712  10.6003
    10.7972  10.9543  11.1758

          k = 0.3834 0.0000 0.1334 ( 11720 PWs)   bands (ev):

   -20.4606 -20.4169 -20.4052 -20.3830 -19.9930 -19.9704  -5.4612  -5.3184
    -5.2097  -5.2054  -5.1715  -5.0383  -4.8184  -4.7219  -4.6723  -4.5598
    -4.5553  -4.4624  -4.0481  -4.0149  -3.9663  -3.9544  -3.8994  -3.8956
     0.0246   0.1428   2.8353   2.9952   3.0104   3.1215   3.3029   3.3568
     5.3176   5.3319   5.5953   5.7561  10.0810  10.1053  10.5004  10.6603
    10.8192  11.1048  11.1467

          k = 0.3834 0.1852 0.2667 ( 11729 PWs)   bands (ev):

   -20.4371 -20.4195 -20.4048 -20.3937 -19.9908 -19.9839  -5.4456  -5.4186
    -5.2776  -5.2291  -5.1008  -5.0914  -4.8120  -4.7738  -4.5863  -4.5714
    -4.5144  -4.4769  -4.0404  -3.9724  -3.9510  -3.9252  -3.9045  -3.8963
     0.1147   0.1413   2.8498   3.0288   3.1151   3.1299   3.2765   3.3612
     5.2881   5.3180   5.7147   5.7960   9.8845  10.0200  10.4213  10.6753
    10.7948  10.8738  11.0749

          k = 0.3833 0.1852 0.4000 ( 11732 PWs)   bands (ev):

   -20.4375 -20.4189 -20.4049 -20.3937 -19.9913 -19.9835  -5.4485  -5.4150
    -5.2697  -5.2381  -5.1002  -5.0902  -4.8112  -4.7768  -4.5854  -4.5709
    -4.5177  -4.4754  -4.0426  -3.9689  -3.9482  -3.9286  -3.9050  -3.8956
     0.1183   0.1392   2.8439   3.0355   3.1087   3.1342   3.2788   3.3581
     5.2906   5.3133   5.7161   5.7954   9.8849  10.0037  10.4656  10.6571
    10.7746  10.9112  11.0628

          k = 0.3833 0.1852 0.5332 ( 11723 PWs)   bands (ev):

   -20.4516 -20.4144 -20.4031 -20.3845 -19.9977 -19.9781  -5.5146  -5.3812
    -5.3229  -5.2938  -5.0761  -5.0107  -4.8718  -4.7294  -4.5433  -4.5238
    -4.4708  -4.4300  -4.1647  -4.0163  -3.9285  -3.9222  -3.8912  -3.8808
     0.0482   0.1055   2.6885   3.1386   3.2445   3.3895   3.4032   3.4632
     5.1182   5.2455   5.3810   5.6477   9.5600   9.6085  10.3845  11.0292
    11.0914  11.1514  11.2829

          k = 0.3834 0.1852 0.0001 ( 11726 PWs)   bands (ev):

   -20.4569 -20.4178 -20.3973 -20.3810 -20.0002 -19.9763  -5.5540  -5.3854
    -5.3340  -5.2718  -5.0838  -5.0093  -4.9072  -4.6901  -4.5431  -4.4454
    -4.4272  -4.3770  -4.2694  -4.0693  -3.9250  -3.9126  -3.8866  -3.8710
     0.0105   0.0815   2.6289   3.1173   3.2940   3.4405   3.6214   3.6990
     4.9136   4.9973   5.3337   5.5859   9.4534   9.4664  10.2678  11.0945
    11.1444  11.1890  11.2877

          k = 0.3834 0.1852 0.1334 ( 11718 PWs)   bands (ev):

   -20.4514 -20.4147 -20.4032 -20.3845 -19.9974 -19.9784  -5.5142  -5.3858
    -5.3174  -5.2970  -5.0721  -5.0153  -4.8729  -4.7250  -4.5392  -4.5250
    -4.4723  -4.4295  -4.1653  -4.0173  -3.9312  -3.9196  -3.8888  -3.8839
     0.0453   0.1062   2.6923   3.1293   3.2495   3.3947   3.4020   3.4633
     5.1195   5.2455   5.3855   5.6427   9.5613   9.6085  10.3946  11.0138
    11.0950  11.1518  11.2967

          k = 0.3834 0.3704 0.2667 ( 11731 PWs)   bands (ev):

   -20.4211 -20.4103 -20.4055 -20.3974 -19.9995 -19.9967  -5.5541  -5.5513
    -5.3045  -5.2604  -5.0804  -5.0239  -4.9452  -4.9046  -4.4443  -4.4234
    -4.3855  -4.3654  -4.0716  -4.0147  -3.9468  -3.9121  -3.8987  -3.8901
     0.0799   0.0836   3.1260   3.2782   3.2877   3.3588   3.4308   3.6096
     4.8450   4.8910   5.5888   5.6494   9.4721   9.4992  10.2116  10.2225
    11.2365  11.2915  11.3740

          k = 0.3833 0.3704 0.4000 ( 11731 PWs)   bands (ev):

   -20.4212 -20.4105 -20.4052 -20.3974 -19.9997 -19.9965  -5.5551  -5.5506
    -5.3018  -5.2619  -5.0743  -5.0277  -4.9433  -4.9111  -4.4438  -4.4233
    -4.3860  -4.3653  -4.0726  -4.0142  -3.9431  -3.9120  -3.8972  -3.8941
     0.0820   0.0828   3.1224   3.2749   3.2871   3.3638   3.4315   3.6096
     4.8505   4.8848   5.5937   5.6437   9.4677   9.5004  10.2220  10.2261
    11.2288  11.3074  11.3967

          k = 0.3833 0.3704 0.5332 ( 11725 PWs)   bands (ev):

   -20.4318 -20.4171 -20.3960 -20.3889 -20.0023 -19.9943  -5.5261  -5.4973
    -5.4318  -5.4037  -5.0624  -5.0331  -4.8295  -4.7399  -4.4331  -4.4101
    -4.3904  -4.3470  -4.2368  -4.1251  -3.8940  -3.8720  -3.8689  -3.8631
     0.0454   0.0476   2.9397   3.2781   3.5171   3.5718   3.6024   3.7665
     4.7603   4.8996   5.2255   5.4052   8.9390   8.9556  10.6307  10.7415
    11.2140  11.2878  11.3721

          k = 0.3834 0.3704 0.0001 ( 11717 PWs)   bands (ev):

   -20.4357 -20.4203 -20.3919 -20.3857 -20.0032 -19.9935  -5.5409  -5.4581
    -5.4540  -5.4313  -5.1138  -5.0932  -4.7459  -4.5301  -4.4165  -4.4156
    -4.3825  -4.3804  -4.3392  -4.2217  -3.8652  -3.8625  -3.8553  -3.8503
     0.0227   0.0267   2.8714   3.2240   3.6316   3.7890   3.8256   3.8339
     4.6525   4.8944   4.9470   5.2435   8.7511   8.7570  10.5841  10.8331
    11.1569  11.1805  11.2910

          k = 0.3834 0.3704 0.1334 ( 11722 PWs)   bands (ev):

   -20.4317 -20.4171 -20.3962 -20.3889 -20.0021 -19.9944  -5.5240  -5.4977
    -5.4351  -5.4038  -5.0652  -5.0325  -4.8281  -4.7343  -4.4336  -4.4107
    -4.3897  -4.3471  -4.2379  -4.1256  -3.8967  -3.8743  -3.8668  -3.8610
     0.0430   0.0478   2.9417   3.2775   3.5245   3.5727   3.5960   3.7669
     4.7587   4.9034   5.2229   5.4064   8.9415   8.9561  10.6332  10.7272
    11.2191  11.2463  11.3686

     the Fermi energy is     8.0732 ev

!    total energy              =    -386.58204586 Ry
     estimated scf accuracy    <          6.3E-09 Ry
     smearing contrib. (-TS)   =      -0.00000000 Ry
     internal energy E=F+TS    =    -386.58204586 Ry

     The total energy is F=E-TS. E is the sum of the following terms:
     one-electron contribution =     -48.42398382 Ry
     hartree contribution      =      50.09517711 Ry
     xc contribution           =     -59.92588920 Ry
     ewald contribution        =    -258.95315539 Ry
     one-center paw contrib.   =     -69.37419457 Ry

     convergence has been achieved in  11 iterations

     Forces acting on atoms (cartesian axes, Ry/au):

     atom    1 type  3   force =    -0.00000309    0.00034650    0.00150508
     atom    2 type  3   force =     0.00000309   -0.00034650   -0.00150508
     atom    3 type  3   force =     0.00000309    0.00034650   -0.00150508
     atom    4 type  3   force =    -0.00000309   -0.00034650    0.00150508
     atom    5 type  3   force =     0.00000000    0.00000000   -0.00000000
     atom    6 type  3   force =     0.00000000   -0.00000000    0.00000000
     atom    7 type  1   force =    -0.00000000   -0.00000000    0.00000000
     atom    8 type  1   force =     0.00000000   -0.00000000   -0.00000000
     atom    9 type  2   force =    -0.00030386   -0.00024313   -0.01083837
     atom   10 type  2   force =     0.00030386    0.00024313    0.01083837
     atom   11 type  2   force =     0.00030386   -0.00024313    0.01083837
     atom   12 type  2   force =    -0.00030386    0.00024313   -0.01083837
     atom   13 type  2   force =    -0.00809074    0.00691830    0.00061759
     atom   14 type  2   force =     0.00809074   -0.00691830   -0.00061759
     atom   15 type  2   force =     0.00809074    0.00691830   -0.00061759
     atom   16 type  2   force =    -0.00809074   -0.00691830    0.00061759
     atom   17 type  2   force =    -0.00896476   -0.00739411   -0.00009515
     atom   18 type  2   force =     0.00896476    0.00739411    0.00009515
     atom   19 type  2   force =     0.00896476   -0.00739411    0.00009515
     atom   20 type  2   force =    -0.00896476    0.00739411   -0.00009515

     Total force =     0.038406     Total SCF correction =     0.000049


     Computing stress (Cartesian axis) and pressure

          total   stress  (Ry/bohr**3)                   (kbar)     P=      137.54
   0.00096147   0.00000000   0.00000222          141.44        0.00        0.33
   0.00000000   0.00090799   0.00000000            0.00      133.57        0.00
   0.00000222   0.00000000   0.00093548            0.33        0.00      137.61

     Energy error            =      2.5E-01 Ry
     Gradient error          =      1.1E-02 Ry/Bohr
     Cell gradient error     =      1.4E+02 kbar

     number of scf cycles    =   2
     number of bfgs steps    =   1

     enthalpy           old  =    -386.3278398183 Ry
     enthalpy           new  =    -386.5820458642 Ry

     CASE: enthalpy          _new < enthalpy          _old

     new trust radius        =       0.3763737695 bohr
     new conv_thr            =       0.0000000011 Ry

     new unit-cell volume =   1929.01131 a.u.^3 (   285.84998 Ang^3 )
     density =      3.36266 g/cm^3

CELL_PARAMETERS (alat= 10.00307627)
   1.091117445   0.000000000   0.000166517
   0.000000000   1.126862969   0.000000000
  -1.091351969   0.000000000   1.567275253

ATOMIC_POSITIONS (crystal)
Rb            0.2474194144        0.5015070374        0.2478809120
Rb            0.7525805856        0.4984929626        0.7521190880
Rb            0.7525805856        0.0015070374        0.2521190880
Rb            0.2474194144        0.9984929626        0.7478809120
Rb            0.5000000000       -0.0000000000        0.5000000000
Rb            0.5000000000        0.5000000000       -0.0000000000
Al            0.0000000000       -0.0000000000        0.0000000000
Al           -0.0000000000        0.5000000000        0.5000000000
H             0.2207873060        0.4879323290        0.7110121817
H             0.7792126940        0.5120676710        0.2889878183
H             0.7792126940       -0.0120676710        0.7889878183
H             0.2207873060        1.0120676710        0.2110121817
H             0.2028281297        0.2918666415        0.4888674253
H             0.7971718703        0.7081333585        0.5111325747
H             0.7971718703        0.7918666415        1.0111325747
H             0.2028281297        0.2081333585       -0.0111325747
H             0.2200873491        0.7037227105        0.5008820912
H             0.7799126509        0.2962772895        0.4991179088
H             0.7799126509        0.2037227105        0.9991179088
H             0.2200873491        0.7962772895        0.0008820912



     Writing output data file ./Rb3AlH6.save/
     NEW-OLD atomic charge density approx. for the potential
     extrapolated charge   80.81017, renormalised to   72.00000

     total cpu time spent up to now is      169.6 secs

     Self-consistent Calculation

     iteration #  1     ecut=    60.00 Ry     beta= 0.70
     Davidson diagonalization with overlap
     c_bands:  1 eigenvalues not converged
     c_bands:  1 eigenvalues not converged
     c_bands:  1 eigenvalues not converged
     c_bands:  1 eigenvalues not converged
     c_bands:  2 eigenvalues not converged
     c_bands:  1 eigenvalues not converged
     c_bands:  1 eigenvalues not converged
     c_bands:  1 eigenvalues not converged
     c_bands:  1 eigenvalues not converged
     c_bands:  2 eigenvalues not converged
     c_bands:  1 eigenvalues not converged
     c_bands:  2 eigenvalues not converged
     c_bands:  1 eigenvalues not converged
     c_bands:  2 eigenvalues not converged
     c_bands:  2 eigenvalues not converged
     c_bands:  3 eigenvalues not converged
     c_bands:  1 eigenvalues not converged
     c_bands:  1 eigenvalues not converged
     c_bands:  2 eigenvalues not converged
     ethr =  1.00E-06,  avg # of iterations = 18.1

     total cpu time spent up to now is      191.8 secs

     total energy              =    -385.64118209 Ry
     estimated scf accuracy    <       0.58230021 Ry

     iteration #  2     ecut=    60.00 Ry     beta= 0.70
     Davidson diagonalization with overlap
     ethr =  8.09E-04,  avg # of iterations =  3.0

     total cpu time spent up to now is      199.4 secs

     total energy              =    -386.76685921 Ry
     estimated scf accuracy    <       1.14871827 Ry

     iteration #  3     ecut=    60.00 Ry     beta= 0.70
     Davidson diagonalization with overlap
     ethr =  8.09E-04,  avg # of iterations =  2.0

     total cpu time spent up to now is      205.2 secs

     total energy              =    -386.79438627 Ry
     estimated scf accuracy    <       0.24101078 Ry

     iteration #  4     ecut=    60.00 Ry     beta= 0.70
     Davidson diagonalization with overlap
     ethr =  3.35E-04,  avg # of iterations =  1.1

     total cpu time spent up to now is      210.5 secs

     total energy              =    -386.72882151 Ry
     estimated scf accuracy    <       0.14077696 Ry

     iteration #  5     ecut=    60.00 Ry     beta= 0.70
     Davidson diagonalization with overlap
     ethr =  1.96E-04,  avg # of iterations =  2.0

     total cpu time spent up to now is      216.2 secs

     total energy              =    -386.73609318 Ry
     estimated scf accuracy    <       0.01235218 Ry

     iteration #  6     ecut=    60.00 Ry     beta= 0.70
     Davidson diagonalization with overlap
     ethr =  1.72E-05,  avg # of iterations =  8.4

     total cpu time spent up to now is      224.7 secs

     total energy              =    -386.73912474 Ry
     estimated scf accuracy    <       0.00001885 Ry

     iteration #  7     ecut=    60.00 Ry     beta= 0.70
     Davidson diagonalization with overlap
     c_bands:  1 eigenvalues not converged
     c_bands:  1 eigenvalues not converged
     c_bands:  2 eigenvalues not converged
     ethr =  2.62E-08,  avg # of iterations =  8.8

     total cpu time spent up to now is      235.2 secs

     total energy              =    -386.73900984 Ry
     estimated scf accuracy    <       0.00065433 Ry

     iteration #  8     ecut=    60.00 Ry     beta= 0.70
     Davidson diagonalization with overlap
     ethr =  2.62E-08,  avg # of iterations =  3.1

     total cpu time spent up to now is      242.5 secs

     total energy              =    -386.73907376 Ry
     estimated scf accuracy    <       0.00003210 Ry

     iteration #  9     ecut=    60.00 Ry     beta= 0.70
     Davidson diagonalization with overlap
     ethr =  2.62E-08,  avg # of iterations =  2.0

     total cpu time spent up to now is      249.0 secs

     total energy              =    -386.73907607 Ry
     estimated scf accuracy    <       0.00000247 Ry

     iteration # 10     ecut=    60.00 Ry     beta= 0.70
     Davidson diagonalization with overlap
     ethr =  3.42E-09,  avg # of iterations =  3.6

     total cpu time spent up to now is      256.0 secs

     total energy              =    -386.73907688 Ry
     estimated scf accuracy    <       0.00000026 Ry

     iteration # 11     ecut=    60.00 Ry     beta= 0.70
     Davidson diagonalization with overlap
     ethr =  3.56E-10,  avg # of iterations =  2.3

     total cpu time spent up to now is      262.5 secs

     total energy              =    -386.73907692 Ry
     estimated scf accuracy    <          4.6E-09 Ry

     iteration # 12     ecut=    60.00 Ry     beta= 0.70
     Davidson diagonalization with overlap
     ethr =  6.37E-12,  avg # of iterations =  3.9

     total cpu time spent up to now is      268.9 secs

     End of self-consistent calculation

          k = 0.0000 0.0000 0.0000 ( 11707 PWs)   bands (ev):

   -21.7300 -21.6764 -21.6580 -21.6389 -21.2495 -21.2134  -6.4390  -6.3894
    -6.1836  -6.0372  -5.9768  -5.9672  -5.9641  -5.9637  -5.9170  -5.6862
    -5.6789  -5.6618  -5.6127  -5.3910  -5.3603  -5.3275  -5.2133  -5.1930
    -1.5714  -0.9627   2.0712   2.3534   2.3602   2.3624   2.6583   2.7050
     3.4812   3.5760   3.5797   4.0141   7.4227   7.9617   9.5554   9.6843
     9.8214   9.9552  10.0065

          k =-0.0000 0.0000 0.1276 ( 11735 PWs)   bands (ev):

   -21.7253 -21.6821 -21.6560 -21.6407 -21.2456 -21.2165  -6.4144  -6.3644
    -6.1533  -6.1232  -6.0627  -5.9859  -5.9371  -5.8956  -5.8403  -5.7038
    -5.6891  -5.6751  -5.6265  -5.4096  -5.3680  -5.3089  -5.2255  -5.2008
    -1.4724  -0.9664   1.8691   2.1226   2.3853   2.3936   2.6282   2.6712
     3.6157   3.7128   3.7662   3.9663   7.5993   8.1998   9.5039   9.6843
     9.7169   9.8227   9.9606

          k =-0.0000 0.0000 0.2552 ( 11742 PWs)   bands (ev):

   -21.7126 -21.6962 -21.6511 -21.6453 -21.2360 -21.2250  -6.3446  -6.2931
    -6.2411  -6.1866  -6.0824  -6.0186  -5.8577  -5.8170  -5.7725  -5.7530
    -5.7509  -5.7119  -5.6033  -5.5169  -5.3150  -5.2668  -5.2612  -5.2258
    -1.2418  -1.0386   1.6610   1.7724   2.4586   2.4775   2.5515   2.5836
     3.7153   3.8484   4.0029   4.0101   8.0944   8.7557   8.8419   9.3853
     9.7585   9.8371   9.9422

          k = 0.0000 0.1775 0.0000 ( 11731 PWs)   bands (ev):

   -21.7215 -21.6728 -21.6629 -21.6424 -21.2482 -21.2187  -6.4049  -6.4010
    -6.1057  -6.0969  -6.0967  -6.0750  -5.9385  -5.9012  -5.8389  -5.8240
    -5.7137  -5.6474  -5.4406  -5.4299  -5.3301  -5.3157  -5.2451  -5.2059
    -1.3899  -0.9313   2.1302   2.1670   2.1989   2.4011   2.4371   2.4479
     3.6280   3.7062   3.8982   4.2729   7.7706   8.4029   9.2593   9.5346
     9.8132   9.8791  10.0040

          k =-0.0000 0.1775 0.1276 ( 11719 PWs)   bands (ev):

   -21.7173 -21.6782 -21.6605 -21.6442 -21.2451 -21.2212  -6.3785  -6.3735
    -6.1312  -6.1279  -6.0980  -6.0646  -5.9017  -5.8938  -5.8845  -5.7941
    -5.7320  -5.6827  -5.4437  -5.4214  -5.3401  -5.2988  -5.2501  -5.2108
    -1.3089  -0.9276   1.9565   2.1190   2.2198   2.2250   2.4132   2.4372
     3.8530   3.9083   3.9305   4.2328   7.9139   8.5813   9.2012   9.6424
     9.7146   9.7698   9.8877

          k =-0.0000 0.1775 0.2552 ( 11728 PWs)   bands (ev):

   -21.7058 -21.6910 -21.6552 -21.6491 -21.2373 -21.2282  -6.3151  -6.2914
    -6.2239  -6.1951  -6.0813  -6.0601  -5.8853  -5.8566  -5.8402  -5.7946
    -5.7794  -5.7646  -5.4512  -5.4374  -5.3141  -5.2724  -5.2617  -5.2286
    -1.1235  -0.9703   1.7395   1.8262   2.2710   2.2798   2.3532   2.3688
     4.0176   4.1325   4.1523   4.1669   8.3031   8.7635   9.1148   9.4610
     9.6919   9.7536   9.8969

          k = 0.0000 0.3550 0.0000 ( 11780 PWs)   bands (ev):

   -21.7007 -21.6780 -21.6633 -21.6517 -21.2424 -21.2309  -6.3610  -6.3008
    -6.2405  -6.1758  -6.1488  -6.0815  -5.9822  -5.8706  -5.8678  -5.7846
    -5.7425  -5.6806  -5.4112  -5.3225  -5.3055  -5.2833  -5.2823  -5.2403
    -1.0524  -0.9009   1.8630   2.0086   2.0543   2.1410   2.3562   2.4514
     3.8522   3.8842   4.3962   4.5548   8.6113   8.7587   8.9870   9.1802
     9.5662   9.6802   9.7967

          k =-0.0000 0.3550 0.1276 ( 11759 PWs)   bands (ev):

   -21.6975 -21.6771 -21.6654 -21.6538 -21.2412 -21.2319  -6.3300  -6.2858
    -6.2249  -6.1813  -6.1484  -6.1088  -5.9443  -5.8757  -5.8608  -5.8025
    -5.7972  -5.7288  -5.3835  -5.3299  -5.2942  -5.2866  -5.2715  -5.2375
    -1.0037  -0.8774   1.8627   1.9526   2.0632   2.1333   2.2156   2.2658
     4.0750   4.1021   4.4113   4.5396   8.6781   8.7048   9.0471   9.4159
     9.6191   9.6884   9.7294

          k =-0.0000 0.3550 0.2552 ( 11716 PWs)   bands (ev):

   -21.6894 -21.6801 -21.6654 -21.6594 -21.2381 -21.2345  -6.2602  -6.2474
    -6.2191  -6.2054  -6.1323  -6.1293  -5.8956  -5.8744  -5.8721  -5.8556
    -5.8417  -5.8238  -5.3519  -5.3408  -5.2889  -5.2816  -5.2499  -5.2372
    -0.9039  -0.8531   1.8017   1.8040   2.0842   2.0900   2.1026   2.1143
     4.3821   4.3921   4.4509   4.4999   8.7206   8.7909   9.1372   9.4154
     9.6232   9.6720   9.7702

          k = 0.1833 0.0000 0.1276 ( 11722 PWs)   bands (ev):

   -21.7157 -21.6776 -21.6592 -21.6441 -21.2471 -21.2230  -6.4261  -6.3216
    -6.1896  -6.1096  -6.1054  -6.0532  -5.9354  -5.8889  -5.8651  -5.8163
    -5.7067  -5.6816  -5.4129  -5.3822  -5.3530  -5.3154  -5.2390  -5.2311
    -1.3007  -0.9262   1.9709   2.1112   2.2210   2.2305   2.3899   2.4525
     3.8763   3.9178   3.9352   4.2135   7.9473   8.5843   9.3405   9.5680
     9.6201   9.8075   9.8161

          k = 0.1833 0.0000 0.2552 ( 11735 PWs)   bands (ev):

   -21.7044 -21.6899 -21.6545 -21.6487 -21.2391 -21.2301  -6.3471  -6.2571
    -6.2513  -6.1620  -6.1033  -6.0947  -5.8890  -5.8793  -5.8284  -5.8026
    -5.7710  -5.7469  -5.4192  -5.4059  -5.3074  -5.2815  -5.2661  -5.2437
    -1.1210  -0.9714   1.7611   1.8449   2.2416   2.2964   2.3264   2.3847
     4.0033   4.1147   4.1789   4.1935   8.3144   8.7439   9.2213   9.5223
     9.7125   9.8015   9.8188

          k = 0.1832 0.0000 0.3828 ( 11737 PWs)   bands (ev):

   -21.7045 -21.6898 -21.6545 -21.6487 -21.2393 -21.2299  -6.3447  -6.2595
    -6.2523  -6.1583  -6.1000  -6.0996  -5.8930  -5.8760  -5.8279  -5.8048
    -5.7719  -5.7455  -5.4191  -5.4069  -5.3098  -5.2789  -5.2629  -5.2456
    -1.1211  -0.9701   1.7597   1.8460   2.2368   2.3004   2.3289   2.3808
     4.0022   4.1156   4.1772   4.1949   8.3209   8.7324   9.2149   9.5397
     9.7384   9.7543   9.7760

          k = 0.1833 0.0000-0.1276 ( 11720 PWs)   bands (ev):

   -21.7158 -21.6775 -21.6591 -21.6441 -21.2471 -21.2229  -6.4244  -6.3229
    -6.1876  -6.1145  -6.1035  -6.0485  -5.9382  -5.8884  -5.8690  -5.8155
    -5.7062  -5.6821  -5.4129  -5.3850  -5.3546  -5.3111  -5.2372  -5.2319
    -1.3002  -0.9248   1.9734   2.1045   2.2252   2.2331   2.3847   2.4501
     3.8772   3.9179   3.9348   4.2132   7.9504   8.5842   9.3318   9.5671
     9.6332   9.8086   9.8474

          k = 0.1833 0.0000 0.0000 ( 11757 PWs)   bands (ev):

   -21.7200 -21.6727 -21.6610 -21.6423 -21.2503 -21.2204  -6.4558  -6.3453
    -6.1601  -6.1358  -6.1045  -5.9624  -5.9554  -5.9355  -5.8684  -5.8189
    -5.6915  -5.6425  -5.4078  -5.3878  -5.3741  -5.3123  -5.2308  -5.2295
    -1.3785  -0.9272   2.1070   2.1700   2.2110   2.3952   2.4154   2.4777
     3.6521   3.7330   3.8857   4.2523   7.8142   8.4200   9.4429   9.4527
     9.6065   9.8527  10.0995

          k = 0.1833 0.1775 0.1276 ( 11723 PWs)   bands (ev):

   -21.7087 -21.6743 -21.6624 -21.6469 -21.2472 -21.2274  -6.4539  -6.2326
    -6.2292  -6.2051  -6.1356  -6.0442  -6.0104  -5.8743  -5.8310  -5.7679
    -5.6947  -5.6691  -5.4659  -5.3661  -5.3045  -5.2785  -5.2660  -5.2326
    -1.1802  -0.9107   1.8136   2.0532   2.2582   2.2633   2.4609   2.4710
     3.7626   3.8282   4.1282   4.3894   8.2597   8.8127   8.9196   8.9759
     9.7495   9.8579  10.0342

          k = 0.1833 0.1775 0.2552 ( 11729 PWs)   bands (ev):

   -21.6984 -21.6854 -21.6576 -21.6517 -21.2407 -21.2332  -6.3646  -6.2712
    -6.2020  -6.1890  -6.1573  -6.1200  -5.9403  -5.8840  -5.8666  -5.7917
    -5.7297  -5.6954  -5.3994  -5.3804  -5.3096  -5.2761  -5.2579  -5.2441
    -1.0415  -0.9338   1.8321   1.8403   2.0550   2.1474   2.4702   2.4753
     3.9203   3.9318   4.3747   4.4441   8.5471   8.7932   9.1849   9.2163
     9.5678   9.6936   9.7766

          k = 0.1832 0.1775 0.3828 ( 11728 PWs)   bands (ev):

   -21.6985 -21.6853 -21.6575 -21.6517 -21.2408 -21.2331  -6.3640  -6.2701
    -6.2022  -6.1910  -6.1559  -6.1188  -5.9427  -5.8845  -5.8662  -5.7919
    -5.7302  -5.6950  -5.4008  -5.3800  -5.3087  -5.2751  -5.2570  -5.2452
    -1.0409  -0.9333   1.8328   1.8376   2.0586   2.1438   2.4696   2.4756
     3.9183   3.9327   4.3750   4.4441   8.5491   8.7913   9.1892   9.2282
     9.5835   9.6470   9.8329

          k = 0.1833 0.1775-0.1276 ( 11721 PWs)   bands (ev):

   -21.7087 -21.6743 -21.6624 -21.6469 -21.2472 -21.2273  -6.4532  -6.2331
    -6.2269  -6.2070  -6.1327  -6.0429  -6.0137  -5.8750  -5.8326  -5.7684
    -5.6951  -5.6688  -5.4665  -5.3660  -5.3040  -5.2783  -5.2644  -5.2330
    -1.1793  -0.9098   1.8107   2.0610   2.2492   2.2635   2.4604   2.4711
     3.7629   3.8272   4.1269   4.3913   8.2614   8.8112   8.9231   8.9854
     9.7500   9.8674   9.9953

          k = 0.1833 0.1775 0.0000 ( 11742 PWs)   bands (ev):

   -21.7125 -21.6697 -21.6645 -21.6451 -21.2498 -21.2252  -6.4879  -6.2464
    -6.2236  -6.2132  -6.0889  -6.0735  -6.0130  -5.8554  -5.7925  -5.7911
    -5.6600  -5.6498  -5.5182  -5.3584  -5.2925  -5.2891  -5.2714  -5.2259
    -1.2416  -0.9166   1.7762   2.2552   2.2901   2.4527   2.4645   2.4706
     3.5806   3.7111   4.0111   4.3762   8.1465   8.7860   8.7940   8.8863
     9.8501   9.8639  10.3057

          k = 0.1833 0.3550 0.1276 ( 11731 PWs)   bands (ev):

   -21.6917 -21.6746 -21.6644 -21.6546 -21.2448 -21.2371  -6.4194  -6.3163
    -6.2819  -6.2436  -6.1272  -6.0890  -5.9881  -5.8734  -5.7717  -5.7604
    -5.7276  -5.6946  -5.4373  -5.3432  -5.2831  -5.2673  -5.2448  -5.2350
    -0.9745  -0.8949   1.7616   2.0691   2.2024   2.2984   2.3324   2.3675
     3.9239   4.1018   4.1746   4.4245   8.3124   8.3910   9.0287   9.5020
     9.7552   9.8450   9.8822

          k = 0.1833 0.3550 0.2552 ( 11722 PWs)   bands (ev):

   -21.6843 -21.6759 -21.6655 -21.6599 -21.2423 -21.2393  -6.3485  -6.3170
    -6.2515  -6.2371  -6.1433  -6.1404  -5.9498  -5.9202  -5.8055  -5.7949
    -5.7455  -5.7199  -5.3617  -5.3300  -5.2770  -5.2735  -5.2507  -5.2482
    -0.9052  -0.8731   1.8449   1.9325   2.1163   2.1406   2.2275   2.2973
     4.1108   4.1594   4.4250   4.5008   8.6066   8.7361   9.0774   9.2947
     9.5224   9.6198   9.7610

          k = 0.1832 0.3550 0.3828 ( 11728 PWs)   bands (ev):

   -21.6844 -21.6759 -21.6655 -21.6599 -21.2423 -21.2393  -6.3490  -6.3168
    -6.2488  -6.2368  -6.1438  -6.1408  -5.9510  -5.9222  -5.8051  -5.7949
    -5.7458  -5.7195  -5.3622  -5.3299  -5.2761  -5.2718  -5.2515  -5.2490
    -0.9040  -0.8729   1.8397   1.9384   2.1163   2.1374   2.2228   2.3023
     4.1153   4.1545   4.4267   4.4987   8.6103   8.7461   9.0479   9.3169
     9.5169   9.6270   9.7853

          k = 0.1833 0.3550-0.1276 ( 11727 PWs)   bands (ev):

   -21.6918 -21.6746 -21.6643 -21.6546 -21.2448 -21.2371  -6.4192  -6.3169
    -6.2804  -6.2422  -6.1273  -6.0880  -5.9900  -5.8766  -5.7717  -5.7603
    -5.7281  -5.6943  -5.4369  -5.3430  -5.2823  -5.2660  -5.2455  -5.2354
    -0.9733  -0.8941   1.7584   2.0707   2.2116   2.2848   2.3364   2.3651
     3.9259   4.1008   4.1734   4.4248   8.3121   8.3883   9.0226   9.5045
     9.7886   9.8307   9.8751

          k = 0.1833 0.3550 0.0000 ( 11734 PWs)   bands (ev):

[...]

   -23.4925 -23.4849 -23.4826 -23.4777 -23.1630 -23.1602  -7.8352  -7.7884
    -7.7862  -7.7573  -7.7299  -7.7283  -7.6459  -7.6050  -7.6036  -7.5646
    -7.5573  -7.5277  -7.2637  -7.2400  -7.2245  -7.2164  -7.2066  -7.2051
    -2.3871  -2.2975   0.5604   0.5868   0.8320   0.8558   0.8723   0.9128
     2.6927   2.7613   2.8980   2.9781   6.7259   6.8595   7.2550   7.2962
     7.8111   7.8269   7.8954

          k =-0.0002 0.3348 0.2382 ( 18608 PWs)   bands (ev):

   -23.4895 -23.4858 -23.4826 -23.4799 -23.1621 -23.1611  -7.7964  -7.7743
    -7.7666  -7.7553  -7.7470  -7.7422  -7.6198  -7.6039  -7.6006  -7.5910
    -7.5840  -7.5724  -7.2531  -7.2469  -7.2146  -7.2094  -7.2073  -7.2060
    -2.3339  -2.2989   0.4913   0.4944   0.8314   0.8404   0.8446   0.8595
     2.8891   2.9155   2.9238   2.9535   6.7771   6.8668   7.3832   7.4622
     7.7239   7.9163   7.9599

          k = 0.1694 0.0000 0.1191 ( 18606 PWs)   bands (ev):

   -23.4998 -23.4869 -23.4799 -23.4738 -23.1636 -23.1567  -7.8621  -7.8533
    -7.7429  -7.7217  -7.7142  -7.7046  -7.6183  -7.6170  -7.5993  -7.5697
    -7.5312  -7.5111  -7.3015  -7.2718  -7.2375  -7.2272  -7.1980  -7.1799
    -2.5547  -2.3086   0.6430   0.7579   0.9055   0.9087   0.9381   1.0100
     2.4759   2.6507   2.6597   2.8567   6.1338   6.3276   7.4288   7.5521
     7.8104   7.8652   8.0190

          k = 0.1693 0.0000 0.2382 ( 18618 PWs)   bands (ev):

   -23.4959 -23.4910 -23.4780 -23.4757 -23.1614 -23.1588  -7.8194  -7.8182
    -7.7722  -7.7693  -7.7124  -7.6990  -7.6204  -7.5918  -7.5815  -7.5658
    -7.5535  -7.5523  -7.2964  -7.2820  -7.2259  -7.2108  -7.2054  -7.1920
    -2.4536  -2.3567   0.5428   0.6050   0.8965   0.9227   0.9382   0.9779
     2.6960   2.7133   2.7672   2.7945   6.5263   6.6031   7.1269   7.1383
     7.9252   7.9424   8.0190

          k = 0.1692 0.0000 0.3573 ( 18617 PWs)   bands (ev):

   -23.4959 -23.4910 -23.4780 -23.4757 -23.1614 -23.1587  -7.8206  -7.8170
    -7.7703  -7.7695  -7.7111  -7.7015  -7.6198  -7.5941  -7.5821  -7.5655
    -7.5532  -7.5511  -7.2966  -7.2823  -7.2242  -7.2120  -7.2060  -7.1912
    -2.4528  -2.3572   0.5422   0.6066   0.8939   0.9229   0.9384   0.9780
     2.6975   2.7185   2.7654   2.7893   6.5138   6.6130   7.1389   7.1421
     7.8977   7.9590   8.0918

          k = 0.1695 0.0000-0.1192 ( 18593 PWs)   bands (ev):

   -23.4999 -23.4869 -23.4799 -23.4738 -23.1636 -23.1566  -7.8613  -7.8540
    -7.7415  -7.7200  -7.7130  -7.7073  -7.6192  -7.6190  -7.6001  -7.5688
    -7.5307  -7.5109  -7.3016  -7.2726  -7.2358  -7.2278  -7.1984  -7.1794
    -2.5540  -2.3088   0.6459   0.7562   0.9060   0.9102   0.9325   1.0101
     2.4796   2.6529   2.6564   2.8538   6.1336   6.3307   7.4315   7.5795
     7.8143   7.8561   8.2772

          k = 0.1694 0.0000-0.0001 ( 18602 PWs)   bands (ev):

   -23.5013 -23.4853 -23.4807 -23.4731 -23.1645 -23.1559  -7.8789  -7.8656
    -7.7302  -7.7224  -7.7185  -7.6791  -7.6480  -7.6058  -7.5914  -7.5835
    -7.5233  -7.4917  -7.3020  -7.2765  -7.2350  -7.2334  -7.1964  -7.1756
    -2.5973  -2.2980   0.7476   0.7895   0.8939   0.9224   0.9832   1.0227
     2.3410   2.5650   2.6295   2.8813   5.9802   6.2206   7.4874   7.7530
     7.9176   7.9705   8.1449

          k = 0.1694 0.1674 0.1191 ( 18604 PWs)   bands (ev):

   -23.4972 -23.4855 -23.4810 -23.4749 -23.1639 -23.1582  -7.8927  -7.7819
    -7.7784  -7.7685  -7.7329  -7.6911  -7.6633  -7.6099  -7.5807  -7.5551
    -7.5164  -7.5041  -7.2974  -7.2665  -7.2263  -7.2138  -7.2098  -7.1859
    -2.4883  -2.2984   0.6091   0.6906   0.9048   0.9149   0.9544   1.0026
     2.4508   2.6236   2.7394   2.9330   6.4440   6.6065   7.0308   7.1614
     7.8910   7.9894   8.1045

          k = 0.1693 0.1674 0.2382 ( 18598 PWs)   bands (ev):

   -23.4936 -23.4892 -23.4792 -23.4768 -23.1621 -23.1599  -7.8436  -7.7956
    -7.7645  -7.7588  -7.7445  -7.7281  -7.6318  -7.6135  -7.5982  -7.5665
    -7.5350  -7.5173  -7.2736  -7.2680  -7.2255  -7.2098  -7.2059  -7.2002
    -2.4063  -2.3315   0.5704   0.5806   0.8286   0.8633   0.9717   0.9896
     2.6154   2.6511   2.8866   2.9298   6.7662   6.8454   7.0445   7.0767
     7.7567   7.9186   7.9647

          k = 0.1692 0.1674 0.3573 ( 18596 PWs)   bands (ev):

   -23.4937 -23.4892 -23.4792 -23.4768 -23.1621 -23.1599  -7.8436  -7.7953
    -7.7651  -7.7571  -7.7431  -7.7301  -7.6336  -7.6119  -7.5998  -7.5658
    -7.5350  -7.5173  -7.2740  -7.2679  -7.2244  -7.2106  -7.2061  -7.1996
    -2.4054  -2.3321   0.5721   0.5793   0.8291   0.8612   0.9709   0.9904
     2.6184   2.6498   2.8862   2.9280   6.7652   6.8470   7.0468   7.0909
     7.7537   7.8855   7.9938

          k = 0.1695 0.1674-0.1192 ( 18596 PWs)   bands (ev):

   -23.4972 -23.4855 -23.4811 -23.4749 -23.1639 -23.1582  -7.8925  -7.7821
    -7.7781  -7.7678  -7.7315  -7.6914  -7.6650  -7.6102  -7.5815  -7.5550
    -7.5162  -7.5040  -7.2977  -7.2664  -7.2259  -7.2143  -7.2094  -7.1858
    -2.4876  -2.2985   0.6067   0.6968   0.8971   0.9160   0.9545   1.0031
     2.4547   2.6225   2.7381   2.9313   6.4486   6.6075   7.0330   7.1739
     7.8849   7.9971   8.0696

          k = 0.1694 0.1674-0.0001 ( 18619 PWs)   bands (ev):

   -23.4986 -23.4841 -23.4818 -23.4742 -23.1646 -23.1576  -7.9116  -7.7885
    -7.7776  -7.7751  -7.7155  -7.6877  -7.6757  -7.6003  -7.5669  -7.5661
    -7.4996  -7.4941  -7.3149  -7.2652  -7.2231  -7.2175  -7.2116  -7.1804
    -2.5234  -2.2925   0.6023   0.8123   0.8899   0.9452   1.0072   1.0097
     2.3340   2.5859   2.6586   2.9384   6.3193   6.5130   6.9952   7.1619
     7.9716   7.9819   8.2642

          k = 0.1694 0.3348 0.1191 ( 18606 PWs)   bands (ev):

   -23.4910 -23.4848 -23.4820 -23.4780 -23.1636 -23.1614  -7.8724  -7.8209
    -7.8156  -7.7931  -7.7210  -7.7117  -7.6584  -7.5911  -7.5519  -7.5485
    -7.5312  -7.5156  -7.2990  -7.2549  -7.2166  -7.2070  -7.1970  -7.1899
    -2.3628  -2.2964   0.5428   0.6713   0.8529   0.9208   0.9277   0.9740
     2.5542   2.6994   2.7924   2.9449   6.6152   6.6854   7.1200   7.2453
     7.9897   8.0104   8.0902

          k = 0.1693 0.3348 0.2382 ( 18604 PWs)   bands (ev):

   -23.4882 -23.4848 -23.4827 -23.4801 -23.1629 -23.1621  -7.8324  -7.8247
    -7.7971  -7.7729  -7.7421  -7.7284  -7.6430  -7.6239  -7.5684  -7.5648
    -7.5412  -7.5283  -7.2598  -7.2409  -7.2194  -7.2139  -7.2001  -7.1984
    -2.3210  -2.2948   0.5515   0.5837   0.8462   0.8616   0.8722   0.9142
     2.6923   2.7364   2.9285   2.9737   6.8068   6.8631   7.2654   7.3325
     7.8151   7.8471   7.8572

          k = 0.1692 0.3348 0.3573 ( 18604 PWs)   bands (ev):

   -23.4882 -23.4848 -23.4827 -23.4801 -23.1629 -23.1621  -7.8325  -7.8249
    -7.7961  -7.7720  -7.7428  -7.7287  -7.6437  -7.6241  -7.5686  -7.5647
    -7.5413  -7.5283  -7.2601  -7.2409  -7.2191  -7.2130  -7.2003  -7.1989
    -2.3204  -2.2950   0.5491   0.5869   0.8427   0.8600   0.8701   0.9197
     2.6972   2.7339   2.9283   2.9707   6.8172   6.8747   7.2752   7.2977
     7.7967   7.8218   7.8987

          k = 0.1695 0.3348-0.1192 ( 18609 PWs)   bands (ev):

   -23.4910 -23.4848 -23.4820 -23.4780 -23.1636 -23.1614  -7.8723  -7.8214
    -7.8145  -7.7925  -7.7211  -7.7117  -7.6592  -7.5915  -7.5522  -7.5485
    -7.5313  -7.5155  -7.2991  -7.2550  -7.2160  -7.2064  -7.1974  -7.1902
    -2.3622  -2.2964   0.5407   0.6736   0.8566   0.9195   0.9233   0.9737
     2.5583   2.7007   2.7890   2.9427   6.6215   6.6895   7.1226   7.2319
     8.0250   8.0401   8.0810

          k = 0.1694 0.3348-0.0001 ( 18603 PWs)   bands (ev):

   -23.4920 -23.4856 -23.4810 -23.4772 -23.1639 -23.1612  -7.8919  -7.8367
    -7.8120  -7.7803  -7.7293  -7.7088  -7.6659  -7.5764  -7.5542  -7.5285
    -7.5154  -7.5040  -7.3232  -7.2673  -7.2135  -7.2008  -7.1986  -7.1866
    -2.3828  -2.3021   0.5320   0.6978   0.8976   0.9482   0.9680   1.0267
     2.4530   2.6128   2.7622   2.9333   6.5491   6.6112   7.0265   7.1566
     8.0739   8.1039   8.1319

          k = 0.3387 0.0000 0.2381 ( 18581 PWs)   bands (ev):

   -23.4897 -23.4865 -23.4818 -23.4796 -23.1620 -23.1610  -7.7919  -7.7794
    -7.7732  -7.7592  -7.7437  -7.7395  -7.6162  -7.6143  -7.6031  -7.5952
    -7.5874  -7.5830  -7.2490  -7.2430  -7.2143  -7.2136  -7.1985  -7.1947
    -2.3233  -2.2869   0.4888   0.4911   0.8441   0.8457   0.8530   0.8625
     2.8826   2.9185   2.9208   2.9533   6.7547   6.8376   7.4458   7.5343
     7.7585   7.8916   7.9522

          k = 0.3387 0.0000 0.3572 ( 18582 PWs)   bands (ev):

   -23.4898 -23.4864 -23.4820 -23.4796 -23.1621 -23.1610  -7.7907  -7.7820
    -7.7725  -7.7555  -7.7434  -7.7421  -7.6185  -7.6134  -7.6042  -7.5961
    -7.5847  -7.5829  -7.2489  -7.2429  -7.2153  -7.2127  -7.2005  -7.1927
    -2.3217  -2.2884   0.4894   0.4909   0.8412   0.8468   0.8545   0.8618
     2.8925   2.9107   2.9236   2.9480   6.7528   6.8546   7.4147   7.5436
     7.7616   7.8799   7.9709

          k = 0.3386 0.0000 0.4763 ( 18607 PWs)   bands (ev):

   -23.4926 -23.4852 -23.4823 -23.4776 -23.1629 -23.1602  -7.8334  -7.8013
    -7.7834  -7.7540  -7.7403  -7.7282  -7.6403  -7.6108  -7.6006  -7.5706
    -7.5627  -7.5318  -7.2641  -7.2389  -7.2230  -7.2126  -7.2082  -7.1903
    -2.3739  -2.2858   0.5481   0.5832   0.8328   0.8687   0.8730   0.9351
     2.6996   2.7613   2.8916   2.9661   6.7172   6.8747   7.3025   7.3027
     7.7751   7.8471   7.8772

          k = 0.3389 0.0000-0.0001 ( 18600 PWs)   bands (ev):

   -23.4937 -23.4858 -23.4814 -23.4768 -23.1632 -23.1599  -7.8527  -7.8083
    -7.7962  -7.7527  -7.7371  -7.7124  -7.6597  -7.6099  -7.6036  -7.5624
    -7.5355  -7.5063  -7.2758  -7.2363  -7.2290  -7.2118  -7.2117  -7.1903
    -2.3991  -2.2907   0.5736   0.6319   0.8271   0.8776   0.9081   1.0020
     2.5696   2.6544   2.8804   2.9768   6.7607   6.8799   7.0639   7.2298
     7.7208   7.9629   8.2270

          k = 0.3388 0.0000 0.1190 ( 18595 PWs)   bands (ev):

   -23.4926 -23.4854 -23.4821 -23.4776 -23.1629 -23.1602  -7.8345  -7.7999
    -7.7836  -7.7526  -7.7430  -7.7285  -7.6397  -7.6089  -7.5997  -7.5710
    -7.5636  -7.5321  -7.2645  -7.2393  -7.2216  -7.2134  -7.2070  -7.1916
    -2.3750  -2.2850   0.5525   0.5764   0.8322   0.8732   0.8780   0.9297
     2.6909   2.7701   2.8883   2.9698   6.7067   6.8527   7.2934   7.3722
     7.7621   7.8400   7.8456

          k = 0.3387 0.1674 0.2381 ( 18587 PWs)   bands (ev):

   -23.4884 -23.4855 -23.4820 -23.4799 -23.1629 -23.1621  -7.8352  -7.8267
    -7.7953  -7.7735  -7.7405  -7.7284  -7.6429  -7.6269  -7.5741  -7.5707
    -7.5428  -7.5312  -7.2566  -7.2379  -7.2194  -7.2082  -7.2012  -7.1934
    -2.3145  -2.2872   0.5447   0.5819   0.8528   0.8658   0.8774   0.9225
     2.6905   2.7274   2.9358   2.9727   6.7983   6.8679   7.2819   7.3028
     7.7707   7.8235   7.8741

          k = 0.3387 0.1674 0.3572 ( 18587 PWs)   bands (ev):

   -23.4885 -23.4854 -23.4822 -23.4799 -23.1629 -23.1621  -7.8358  -7.8265
    -7.7942  -7.7725  -7.7421  -7.7283  -7.6438  -7.6263  -7.5753  -7.5695
    -7.5438  -7.5304  -7.2566  -7.2378  -7.2198  -7.2080  -7.2013  -7.1932
    -2.3128  -2.2887   0.5453   0.5809   0.8536   0.8699   0.8768   0.9181
     2.6889   2.7318   2.9287   2.9768   6.8085   6.8559   7.2642   7.3347
     7.7774   7.8091   7.8892

          k = 0.3386 0.1674 0.4763 ( 18601 PWs)   bands (ev):

   -23.4910 -23.4850 -23.4819 -23.4780 -23.1636 -23.1614  -7.8745  -7.8231
    -7.8139  -7.7916  -7.7286  -7.7131  -7.6545  -7.5898  -7.5565  -7.5543
    -7.5318  -7.5189  -7.2963  -7.2539  -7.2163  -7.2019  -7.1975  -7.1850
    -2.3542  -2.2894   0.5342   0.6652   0.8655   0.9276   0.9287   0.9820
     2.5549   2.6967   2.7897   2.9424   6.6174   6.6853   7.1122   7.2439
     7.9539   8.0674   8.1419

          k = 0.3389 0.1674-0.0001 ( 18598 PWs)   bands (ev):

   -23.4920 -23.4856 -23.4810 -23.4772 -23.1639 -23.1612  -7.8939  -7.8380
    -7.8114  -7.7803  -7.7353  -7.7116  -7.6626  -7.5787  -7.5571  -7.5286
    -7.5177  -7.5045  -7.3218  -7.2672  -7.2129  -7.2005  -7.1943  -7.1824
    -2.3748  -2.2944   0.5255   0.6880   0.9030   0.9597   0.9694   1.0399
     2.4506   2.6121   2.7597   2.9301   6.5486   6.6089   7.0153   7.1687
     8.0503   8.0910   8.1726

          k = 0.3388 0.1674 0.1190 ( 18595 PWs)   bands (ev):

   -23.4910 -23.4851 -23.4818 -23.4780 -23.1636 -23.1614  -7.8745  -7.8244
    -7.8126  -7.7926  -7.7273  -7.7139  -7.6546  -7.5890  -7.5561  -7.5534
    -7.5325  -7.5192  -7.2967  -7.2536  -7.2163  -7.2023  -7.1969  -7.1855
    -2.3553  -2.2886   0.5360   0.6621   0.8614   0.9283   0.9360   0.9807
     2.5517   2.6965   2.7937   2.9419   6.6134   6.6873   7.1044   7.2483
     7.9821   8.0165   8.1215

          k = 0.3387 0.3348 0.2381 ( 18594 PWs)   bands (ev):

   -23.4856 -23.4838 -23.4824 -23.4809 -23.1642 -23.1639  -7.8919  -7.8907
    -7.8035  -7.7824  -7.7318  -7.6950  -7.6904  -7.6638  -7.5241  -7.5165
    -7.5041  -7.4974  -7.2671  -7.2511  -7.2205  -7.2125  -7.1869  -7.1848
    -2.2986  -2.2896   0.6904   0.7846   0.8341   0.9067   0.9304   0.9546
     2.4318   2.4504   2.9316   2.9512   6.6115   6.6189   7.1609   7.2302
     8.0891   8.1645   8.1894

          k = 0.3387 0.3348 0.3572 ( 18598 PWs)   bands (ev):

   -23.4856 -23.4838 -23.4825 -23.4809 -23.1642 -23.1639  -7.8920  -7.8906
    -7.8031  -7.7821  -7.7314  -7.6951  -7.6907  -7.6647  -7.5238  -7.5167
    -7.5041  -7.4973  -7.2672  -7.2513  -7.2200  -7.2122  -7.1870  -7.1850
    -2.2978  -2.2902   0.6943   0.7781   0.8354   0.8999   0.9370   0.9554
     2.4307   2.4526   2.9289   2.9524   6.6137   6.6178   7.1760   7.2259
     8.0476   8.1442   8.1910

          k = 0.3386 0.3348 0.4763 ( 18577 PWs)   bands (ev):

   -23.4878 -23.4854 -23.4806 -23.4790 -23.1645 -23.1636  -7.8829  -7.8771
    -7.8599  -7.8453  -7.7278  -7.7200  -7.6079  -7.5782  -7.5222  -7.5118
    -7.5062  -7.4915  -7.3332  -7.3027  -7.1959  -7.1906  -7.1814  -7.1767
    -2.3209  -2.3000   0.6190   0.7434   0.9266   1.0081   1.0203   1.0538
     2.3390   2.4024   2.8159   2.8823   6.2066   6.2239   7.5579   7.9262
     7.9473   8.0570   8.1133

          k = 0.3389 0.3348-0.0001 ( 18592 PWs)   bands (ev):

   -23.4886 -23.4861 -23.4798 -23.4783 -23.1646 -23.1635  -7.8958  -7.8708
    -7.8673  -7.8553  -7.7380  -7.7361  -7.5781  -7.5164  -7.5140  -7.5042
    -7.5028  -7.4892  -7.3833  -7.3354  -7.1892  -7.1856  -7.1758  -7.1723
    -2.3336  -2.3075   0.5878   0.7098   1.0161   1.0629   1.0932   1.0949
     2.2636   2.3463   2.7607   2.8445   6.0634   6.0838   7.5691   7.8392
     8.0718   8.1725   8.3468

          k = 0.3388 0.3348 0.1190 ( 18578 PWs)   bands (ev):

   -23.4878 -23.4854 -23.4806 -23.4791 -23.1645 -23.1636  -7.8825  -7.8769
    -7.8611  -7.8454  -7.7282  -7.7195  -7.6076  -7.5772  -7.5226  -7.5119
    -7.5060  -7.4916  -7.3333  -7.3026  -7.1965  -7.1909  -7.1809  -7.1766
    -2.3215  -2.2997   0.6189   0.7438   0.9254   1.0098   1.0212   1.0534
     2.3382   2.4010   2.8183   2.8821   6.2056   6.2246   7.5347   7.9313
     7.9592   8.0735   8.1157

     the Fermi energy is     5.0549 ev

!    total energy              =    -386.83245227 Ry
     estimated scf accuracy    <          3.6E-11 Ry
     smearing contrib. (-TS)   =      -0.00000000 Ry
     internal energy E=F+TS    =    -386.83245227 Ry

     The total energy is F=E-TS. E is the sum of the following terms:
     one-electron contribution =     -89.80211832 Ry
     hartree contribution      =      62.56242279 Ry
     xc contribution           =     -58.72775726 Ry
     ewald contribution        =    -231.54007077 Ry
     one-center paw contrib.   =     -69.32492872 Ry

     convergence has been achieved in   9 iterations

     Forces acting on atoms (cartesian axes, Ry/au):

     atom    1 type  3   force =     0.00002341   -0.00011015   -0.00041994
     atom    2 type  3   force =    -0.00002341    0.00011015    0.00041994
     atom    3 type  3   force =    -0.00002341   -0.00011015    0.00041994
     atom    4 type  3   force =     0.00002341    0.00011015   -0.00041994
     atom    5 type  3   force =     0.00000000    0.00000000   -0.00000000
     atom    6 type  3   force =     0.00000000    0.00000000    0.00000000
     atom    7 type  1   force =     0.00000000    0.00000000    0.00000000
     atom    8 type  1   force =     0.00000000    0.00000000    0.00000000
     atom    9 type  2   force =     0.00016643    0.00015395   -0.00008780
     atom   10 type  2   force =    -0.00016643   -0.00015395    0.00008780
     atom   11 type  2   force =    -0.00016643    0.00015395    0.00008780
     atom   12 type  2   force =     0.00016643   -0.00015395   -0.00008780
     atom   13 type  2   force =    -0.00006617   -0.00004750   -0.00000036
     atom   14 type  2   force =     0.00006617    0.00004750    0.00000036
     atom   15 type  2   force =     0.00006617   -0.00004750    0.00000036
     atom   16 type  2   force =    -0.00006617    0.00004750   -0.00000036
     atom   17 type  2   force =    -0.00004668   -0.00005917   -0.00028619
     atom   18 type  2   force =     0.00004668    0.00005917    0.00028619
     atom   19 type  2   force =     0.00004668   -0.00005917    0.00028619
     atom   20 type  2   force =    -0.00004668    0.00005917   -0.00028619

     Total force =     0.001170     Total SCF correction =     0.000004


     Computing stress (Cartesian axis) and pressure

          total   stress  (Ry/bohr**3)                   (kbar)     P=        0.84
   0.00000735   0.00000000  -0.00000031            1.08        0.00       -0.05
   0.00000000   0.00000412   0.00000000            0.00        0.61        0.00
  -0.00000031   0.00000000   0.00000558           -0.05        0.00        0.82


     Writing output data file ./Rb3AlH6.save/

     init_run     :     10.05s CPU     10.19s WALL (       2 calls)
     electrons    :   1084.00s CPU   1098.16s WALL (      15 calls)
     update_pot   :     31.85s CPU     31.96s WALL (      13 calls)
     forces       :     23.60s CPU     23.72s WALL (      15 calls)
     stress       :     58.79s CPU     59.07s WALL (      15 calls)

     Called by init_run:
     wfcinit      :      4.97s CPU      5.05s WALL (       2 calls)
     potinit      :      2.39s CPU      2.40s WALL (       2 calls)
     hinit0       :      2.48s CPU      2.48s WALL (       2 calls)

     Called by electrons:
     c_bands      :    911.59s CPU    923.61s WALL (     151 calls)
     sum_band     :    119.11s CPU    120.56s WALL (     151 calls)
     v_of_rho     :      2.80s CPU      2.82s WALL (     166 calls)
     newd         :      5.10s CPU      5.35s WALL (     166 calls)
     PAW_pot      :     53.92s CPU     54.06s WALL (     179 calls)
     mix_rho      :      0.27s CPU      0.28s WALL (     151 calls)

     Called by c_bands:
     init_us_2    :      9.26s CPU     10.27s WALL (   13533 calls)
     cegterg      :    888.69s CPU    897.21s WALL (    5889 calls)

     Called by *egterg:
     cdiaghg      :     79.88s CPU     80.80s WALL (   27596 calls)
     h_psi        :    640.17s CPU    646.86s WALL (   28181 calls)
     s_psi        :     35.51s CPU     35.72s WALL (   28181 calls)
     g_psi        :      1.30s CPU      1.32s WALL (   22214 calls)

     Called by h_psi:
     h_psi:calbec :     56.48s CPU     56.83s WALL (   28181 calls)
     vloc_psi     :    544.17s CPU    550.30s WALL (   28181 calls)
     add_vuspsi   :     38.18s CPU     38.40s WALL (   28181 calls)

     General routines
     calbec       :     83.91s CPU     84.42s WALL (   37502 calls)
     fft          :      1.62s CPU      1.63s WALL (    2214 calls)
     ffts         :      0.09s CPU      0.09s WALL (     151 calls)
     fftw         :    601.94s CPU    608.51s WALL ( 1720331 calls)

     Parallel routines

     PWSCF        :  20m15.16s CPU  20m30.71s WALL


   This run was terminated on:  16:40:53  30Nov2023            

=------------------------------------------------------------------------------=
   JOB DONE.
=------------------------------------------------------------------------------=
