
     Program PWSCF v.6.8 starts on 30Nov2023 at 16: 4:22 

     This program is part of the open-source Quantum ESPRESSO suite
     for quantum simulation of materials; please cite
         "P. Giannozzi et al., J. Phys.:Condens. Matter 21 395502 (2009);
         "P. Giannozzi et al., J. Phys.:Condens. Matter 29 465901 (2017);
         "P. Giannozzi et al., J. Chem. Phys. 152 154105 (2020);
          URL http://www.quantum-espresso.org", 
     in publications or presentations arising from this work. More details at
     http://www.quantum-espresso.org/quote

     Parallel version (MPI), running on    12 processors

     MPI processes distributed on     1 nodes
     R & G space division:  proc/nbgrp/npool/nimage =      12
     119182 MiB available memory on the printing compute node when the environment starts

     Reading input from input2.in

     Current dimensions of program PWSCF are:
     Max number of different atomic species (ntypx) = 10
     Max number of k-points (npk) =  40000
     Max angular momentum in pseudopotentials (lmaxx) =  4
     file Al.pbe-n-kjpaw_psl.1.0.0.UPF: wavefunction(s)  3S 3P renormalized

     IMPORTANT: XC functional enforced from input :
     Exchange-correlation= PBE
                           (   1   4   3   4   0   0   0)
     Any further DFT definition will be discarded
     Please, verify this is what you really want

     Message from routine setup:
     using ibrav=0 with symmetry is DISCOURAGED, use correct ibrav instead

     Subspace diagonalization in iterative solution of the eigenvalue problem:
     one sub-group per band group will be used
     scalapack distributed-memory algorithm (size of sub-group:  3*  3 procs)


     Parallelization info
     --------------------
     sticks:   dense  smooth     PW     G-vecs:    dense   smooth      PW
     Min         253     253     68                16045    16045    2258
     Max         254     254     70                16050    16050    2260
     Sum        3041    3041    829               192575   192575   27109

     Using Slab Decomposition



     bravais-lattice index     =            0
     lattice parameter (alat)  =      12.6114  a.u.
     unit-cell volume          =    3067.3013 (a.u.)^3
     number of atoms/cell      =           44
     number of atomic types    =            3
     number of electrons       =       136.00
     number of Kohn-Sham states=           82
     kinetic-energy cutoff     =      60.0000  Ry
     charge density cutoff     =     240.0000  Ry
     scf convergence threshold =      1.0E-08
     mixing beta               =       0.7000
     number of iterations used =            8  plain     mixing
     energy convergence thresh.=      1.0E-04
     force convergence thresh. =      1.0E-03
     press convergence thresh. =      5.0E-01
     Exchange-correlation= PBE
                           (   1   4   3   4   0   0   0)
     nstep                     =           50


     celldm(1)=  12.611352  celldm(2)=   0.000000  celldm(3)=   0.000000
     celldm(4)=   0.000000  celldm(5)=   0.000000  celldm(6)=   0.000000

     crystal axes: (cart. coord. in units of alat)
               a(1) = (   1.000000   0.000000   0.000000 )  
               a(2) = (   0.000000   1.000000   0.000000 )  
               a(3) = (   0.000000   0.000000   1.529225 )  

     reciprocal axes: (cart. coord. in units 2 pi/alat)
               b(1) = (  1.000000  0.000000  0.000000 )  
               b(2) = (  0.000000  1.000000  0.000000 )  
               b(3) = (  0.000000  0.000000  0.653926 )  


     PseudoPot. # 1 for Al read from file:
     ./Al.pbe-n-kjpaw_psl.1.0.0.UPF
     MD5 check sum: cfc449ca30b5f3223ec38ddd88ac046d
     Pseudo is Projector augmented-wave + core cor, Zval =  3.0
     Generated using "atomic" code by A. Dal Corso  v.5.1
     Shape of augmentation charge: PSQ
     Using radial grid of 1135 points,  6 beta functions with: 
                l(1) =   0
                l(2) =   0
                l(3) =   1
                l(4) =   1
                l(5) =   2
                l(6) =   2
     Q(r) pseudized with 0 coefficients 


     PseudoPot. # 2 for H  read from file:
     ./H.pbe-rrkjus_psl.1.0.0.UPF
     MD5 check sum: f52b6d4d1c606e5624b1dc7b2218f220
     Pseudo is Ultrasoft, Zval =  1.0
     Generated using "atomic" code by A. Dal Corso  v.5.1
     Using radial grid of  929 points,  2 beta functions with: 
                l(1) =   0
                l(2) =   0
     Q(r) pseudized with 0 coefficients 


     PseudoPot. # 3 for Rb read from file:
     ./Rb_ONCV_PBE-1.0.oncvpsp.upf
     MD5 check sum: 55a5172d6bfbce6759a58e35d43f6aa9
     Pseudo is Norm-conserving, Zval =  9.0
     Generated using ONCVPSP code by D. R. Hamann
     Using radial grid of 2308 points,  6 beta functions with: 
                l(1) =   0
                l(2) =   0
                l(3) =   1
                l(4) =   1
                l(5) =   2
                l(6) =   2

     atomic species   valence    mass     pseudopotential
        Al             3.00    26.98100     Al( 1.00)
        H              1.00     1.00750     H ( 1.00)
        Rb             9.00    85.46780     Rb( 1.00)

     16 Sym. Ops., with inversion, found ( 8 have fractional translation)



   Cartesian axes

     site n.     atom                  positions (alat units)
         1           Rb  tau(   1) = (   0.1891385   0.3108615   0.3823064  )
         2           Rb  tau(   2) = (   0.8108615   0.6891385   1.1469191  )
         3           Rb  tau(   3) = (   0.6891385   0.1891385   0.3823064  )
         4           Rb  tau(   4) = (   0.3108615   0.8108615   1.1469191  )
         5           Rb  tau(   5) = (   0.8108615   0.6891385   0.3823064  )
         6           Rb  tau(   6) = (   0.1891385   0.3108615   1.1469191  )
         7           Rb  tau(   7) = (   0.3108615   0.8108615   0.3823064  )
         8           Rb  tau(   8) = (   0.6891385   0.1891385   1.1469191  )
         9           Rb  tau(   9) = (   0.0000000   0.0000000   0.7646127  )
        10           Rb  tau(  10) = (   0.5000000   0.5000000   0.0000000  )
        11           Al  tau(  11) = (   0.0000000   0.5000000   0.0000000  )
        12           Al  tau(  12) = (   0.5000000   0.0000000   0.0000000  )
        13           Al  tau(  13) = (   0.5000000   0.0000000   0.7646127  )
        14           Al  tau(  14) = (   0.0000000   0.5000000   0.7646127  )
        15           Al  tau(  15) = (   0.0000000   0.0000000   0.0000000  )
        16           Al  tau(  16) = (   0.5000000   0.5000000   0.7646127  )
        17           H   tau(  17) = (   0.0842038   0.6544766   0.5972927  )
        18           H   tau(  18) = (   0.9157962   0.3455234   0.9319328  )
        19           H   tau(  19) = (   0.3455234   0.0842038   0.5972927  )
        20           H   tau(  20) = (   0.6544766   0.9157962   0.9319328  )
        21           H   tau(  21) = (   0.9157962   0.3455234   0.5972927  )
        22           H   tau(  22) = (   0.0842038   0.6544766   0.9319328  )
        23           H   tau(  23) = (   0.6544766   0.9157962   0.5972927  )
        24           H   tau(  24) = (   0.3455234   0.0842038   0.9319328  )
        25           H   tau(  25) = (   0.5842038   0.8455234   0.1673200  )
        26           H   tau(  26) = (   0.4157962   0.1544766   1.3619054  )
        27           H   tau(  27) = (   0.8455234   0.4157962   0.1673200  )
        28           H   tau(  28) = (   0.1544766   0.5842038   1.3619054  )
        29           H   tau(  29) = (   0.4157962   0.1544766   0.1673200  )
        30           H   tau(  30) = (   0.5842038   0.8455234   1.3619054  )
        31           H   tau(  31) = (   0.1544766   0.5842038   0.1673200  )
        32           H   tau(  32) = (   0.8455234   0.4157962   1.3619054  )
        33           H   tau(  33) = (   0.1050928   0.2469715   0.0000000  )
        34           H   tau(  34) = (   0.8949072   0.7530285   0.0000000  )
        35           H   tau(  35) = (   0.7530285   0.1050928   0.0000000  )
        36           H   tau(  36) = (   0.2469715   0.8949072   0.0000000  )
        37           H   tau(  37) = (   0.6050928   0.2530285   0.7646127  )
        38           H   tau(  38) = (   0.3949072   0.7469715   0.7646127  )
        39           H   tau(  39) = (   0.2530285   0.3949072   0.7646127  )
        40           H   tau(  40) = (   0.7469715   0.6050928   0.7646127  )
        41           H   tau(  41) = (   0.0000000   0.0000000   0.2510700  )
        42           H   tau(  42) = (   0.0000000   0.0000000   1.2781555  )
        43           H   tau(  43) = (   0.5000000   0.5000000   0.5135428  )
        44           H   tau(  44) = (   0.5000000   0.5000000   1.0156827  )

     number of k points=    18  Marzari-Vanderbilt smearing, width (Ry)=  0.0050
                       cart. coord. in units 2pi/alat
        k(    1) = (   0.0000000   0.0000000   0.0000000), wk =   0.0160000
        k(    2) = (   0.0000000   0.0000000   0.1307852), wk =   0.0320000
        k(    3) = (   0.0000000   0.0000000   0.2615703), wk =   0.0320000
        k(    4) = (   0.0000000   0.2000000   0.0000000), wk =   0.0640000
        k(    5) = (   0.0000000   0.2000000   0.1307852), wk =   0.1280000
        k(    6) = (   0.0000000   0.2000000   0.2615703), wk =   0.1280000
        k(    7) = (   0.0000000   0.4000000   0.0000000), wk =   0.0640000
        k(    8) = (   0.0000000   0.4000000   0.1307852), wk =   0.1280000
        k(    9) = (   0.0000000   0.4000000   0.2615703), wk =   0.1280000
        k(   10) = (   0.2000000   0.2000000   0.0000000), wk =   0.0640000
        k(   11) = (   0.2000000   0.2000000   0.1307852), wk =   0.1280000
        k(   12) = (   0.2000000   0.2000000   0.2615703), wk =   0.1280000
        k(   13) = (   0.2000000   0.4000000   0.0000000), wk =   0.1280000
        k(   14) = (   0.2000000   0.4000000   0.1307852), wk =   0.2560000
        k(   15) = (   0.2000000   0.4000000   0.2615703), wk =   0.2560000
        k(   16) = (   0.4000000   0.4000000   0.0000000), wk =   0.0640000
        k(   17) = (   0.4000000   0.4000000   0.1307852), wk =   0.1280000
        k(   18) = (   0.4000000   0.4000000   0.2615703), wk =   0.1280000

     Dense  grid:   192575 G-vectors     FFT dimensions: (  64,  64,  96)

     Estimated max dynamical RAM per process >     141.44 MB

     Estimated total dynamical RAM >       1.66 GB

     Initial potential from superposition of free atoms

     starting charge  135.73834, renormalised to  136.00000
     Starting wfcs are  102 randomized atomic wfcs
     Checking if some PAW data can be deallocated... 

     total cpu time spent up to now is        8.0 secs

     Self-consistent Calculation

     iteration #  1     ecut=    60.00 Ry     beta= 0.70
     Davidson diagonalization with overlap
     ethr =  1.00E-02,  avg # of iterations =  6.7

     total cpu time spent up to now is       22.0 secs

     total energy              =    -758.21063964 Ry
     estimated scf accuracy    <       2.78381376 Ry

     iteration #  2     ecut=    60.00 Ry     beta= 0.70
     Davidson diagonalization with overlap
     ethr =  2.05E-03,  avg # of iterations =  2.1

     total cpu time spent up to now is       32.4 secs

     total energy              =    -758.65715228 Ry
     estimated scf accuracy    <       0.15276787 Ry

     iteration #  3     ecut=    60.00 Ry     beta= 0.70
     Davidson diagonalization with overlap
     ethr =  1.12E-04,  avg # of iterations = 12.3

     total cpu time spent up to now is       48.9 secs

     total energy              =    -758.69806229 Ry
     estimated scf accuracy    <       0.01054002 Ry

     iteration #  4     ecut=    60.00 Ry     beta= 0.70
     Davidson diagonalization with overlap
     c_bands:  1 eigenvalues not converged
     ethr =  7.75E-06,  avg # of iterations = 10.9

     total cpu time spent up to now is       64.3 secs

     total energy              =    -758.70061655 Ry
     estimated scf accuracy    <       0.00030245 Ry

     iteration #  5     ecut=    60.00 Ry     beta= 0.70
     Davidson diagonalization with overlap
     ethr =  2.22E-07,  avg # of iterations =  4.4

     total cpu time spent up to now is       75.1 secs

     total energy              =    -758.70070439 Ry
     estimated scf accuracy    <       0.00003102 Ry

     iteration #  6     ecut=    60.00 Ry     beta= 0.70
     Davidson diagonalization with overlap
     ethr =  2.28E-08,  avg # of iterations =  2.9

     total cpu time spent up to now is       85.2 secs

     total energy              =    -758.70071381 Ry
     estimated scf accuracy    <       0.00000359 Ry

     iteration #  7     ecut=    60.00 Ry     beta= 0.70
     Davidson diagonalization with overlap
     ethr =  2.64E-09,  avg # of iterations =  3.2

     total cpu time spent up to now is       95.4 secs

     total energy              =    -758.70071476 Ry
     estimated scf accuracy    <       0.00000014 Ry

     iteration #  8     ecut=    60.00 Ry     beta= 0.70
     Davidson diagonalization with overlap
     ethr =  1.05E-10,  avg # of iterations =  4.1

     total cpu time spent up to now is      107.6 secs

     End of self-consistent calculation

          k = 0.0000 0.0000 0.0000 ( 24099 PWs)   bands (ev):

   -20.1981 -20.1719 -19.6921 -19.6655 -19.4796 -19.4796 -19.4765 -19.4765
   -19.3804 -19.3776  -5.4271  -5.2399  -5.1149  -5.0421  -5.0421  -4.9756
    -4.8279  -4.6274  -4.5208  -4.5178  -4.5178  -4.5014  -4.5014  -4.2478
    -4.2478  -3.9127  -3.8134  -3.8134  -3.6891  -3.6786  -3.5690  -3.5690
    -3.5250  -3.4698  -3.1699  -3.1551  -3.1139  -3.1139  -3.1074  -3.1074
    -1.8185  -0.1903   0.0794   0.7429   1.3398   1.7461   1.7461   2.0786
     2.2437   2.3819   2.3819   3.1105   3.3492   3.8194   3.8194   3.8205
     4.3946   4.3946   4.6060   4.7079   4.7089   4.7526   4.8150   4.9155
     4.9155   5.8550   5.8550   5.8590   9.1352  10.1204  10.4570  10.4976
    10.7544  10.7544  10.7988  10.7988  10.8960  11.0907  11.5450  11.6100
    11.6505  11.6505

          k = 0.0000 0.0000 0.1308 ( 24099 PWs)   bands (ev):

   -20.1957 -20.1745 -19.6894 -19.6679 -19.4793 -19.4793 -19.4768 -19.4768
   -19.3801 -19.3778  -5.3973  -5.2290  -5.1280  -5.0139  -5.0139  -5.0007
    -4.9135  -4.6597  -4.6597  -4.5704  -4.4569  -4.3871  -4.3871  -4.2486
    -4.2486  -3.8902  -3.7913  -3.7913  -3.7707  -3.7010  -3.5909  -3.5909
    -3.5188  -3.4744  -3.1687  -3.1567  -3.1141  -3.1141  -3.1087  -3.1087
    -1.6659  -0.3786   0.1324   0.6646   1.3891   1.8072   1.8072   1.9628
     2.3239   2.3239   2.4214   3.2293   3.5072   3.6375   3.8327   3.8327
     4.2482   4.2482   4.4007   4.5557   4.6705   4.9510   4.9569   5.0958
     5.0958   5.7840   5.8053   5.8053   9.2368   9.9016  10.4143  10.7961
    10.8060  10.8060  10.8362  10.8362  10.9193  10.9490  11.0732  11.6327
    11.6328  11.7732

          k = 0.0000 0.0000 0.2616 ( 24048 PWs)   bands (ev):

   -20.1893 -20.1812 -19.6826 -19.6744 -19.4785 -19.4785 -19.4775 -19.4775
   -19.3794 -19.3785  -5.3097  -5.1995  -5.1701  -5.1611  -4.9327  -4.9327
    -4.8259  -4.8089  -4.8089  -4.6916  -4.3071  -4.3071  -4.2632  -4.2632
    -4.2074  -3.9657  -3.8316  -3.7594  -3.7289  -3.7289  -3.6509  -3.6509
    -3.5039  -3.4871  -3.1653  -3.1608  -3.1138  -3.1138  -3.1116  -3.1116
    -1.2844  -0.8083   0.2789   0.4795   1.5298   1.7387   1.9680   1.9680
     2.1668   2.1668   2.8144   3.2532   3.5429   3.8596   3.8963   3.8963
     3.9647   4.0392   4.0392   4.2475   4.8213   4.9538   5.2701   5.3941
     5.3941   5.5729   5.6489   5.6489   9.4862   9.7106  10.2960  10.4466
    10.8882  10.8882  10.9140  10.9140  10.9739  11.0303  11.2588  11.5956
    11.6831  11.6832

          k = 0.0000 0.2000 0.0000 ( 24103 PWs)   bands (ev):

   -20.1947 -20.1736 -19.6734 -19.6506 -19.5014 -19.5003 -19.4688 -19.4659
   -19.3873 -19.3846  -5.3773  -5.2131  -5.0751  -5.0452  -5.0363  -4.8904
    -4.8115  -4.7762  -4.6175  -4.4820  -4.4392  -4.4176  -4.3395  -4.3217
    -4.1237  -3.8752  -3.8665  -3.8006  -3.6994  -3.6743  -3.6540  -3.5825
    -3.5138  -3.4945  -3.3466  -3.2934  -3.2080  -3.1841  -3.1271  -3.1226
    -1.5822  -0.1983   0.1594   0.4613   1.1259   1.4669   1.8802   2.3166
     2.4230   2.6948   2.6982   3.2162   3.3965   3.6937   3.7278   3.8051
     4.1353   4.1485   4.2648   4.5005   4.7853   4.7901   4.9520   5.0412
     5.3790   5.6853   5.8485   5.8935   9.2056  10.1755  10.2622  10.2977
    10.5566  10.7231  10.8297  10.9083  10.9329  11.2561  11.4688  11.6489
    11.7135  11.8271

          k = 0.0000 0.2000 0.1308 ( 24094 PWs)   bands (ev):

   -20.1928 -20.1757 -19.6712 -19.6527 -19.5012 -19.5004 -19.4685 -19.4661
   -19.3871 -19.3848  -5.3605  -5.2072  -5.0634  -5.0593  -5.0341  -4.9440
    -4.8166  -4.6723  -4.6593  -4.5198  -4.5034  -4.3805  -4.3283  -4.2579
    -4.1397  -3.8874  -3.8390  -3.8070  -3.7643  -3.7007  -3.6392  -3.5888
    -3.5010  -3.4962  -3.3329  -3.2956  -3.2045  -3.1860  -3.1272  -3.1236
    -1.4536  -0.3436   0.1952   0.4364   1.1578   1.4282   1.9148   2.2442
     2.5399   2.6567   2.6767   3.3442   3.4588   3.5730   3.7918   3.8165
     3.9223   4.1044   4.3419   4.4401   4.7925   4.8945   4.9654   5.1517
     5.4042   5.6323   5.7769   5.8344   9.3158   9.9474  10.2535  10.4171
    10.5746  10.7709  10.8021  10.9607  11.0093  11.2432  11.3603  11.4291
    11.7728  11.8274

          k = 0.0000 0.2000 0.2616 ( 24064 PWs)   bands (ev):

   -20.1876 -20.1811 -19.6654 -19.6584 -19.5009 -19.5006 -19.4678 -19.4669
   -19.3864 -19.3855  -5.3084  -5.2323  -5.1128  -5.0913  -4.9449  -4.9054
    -4.8073  -4.7779  -4.6751  -4.5897  -4.4234  -4.3864  -4.2285  -4.2023
    -4.1648  -4.0397  -3.8404  -3.8070  -3.7210  -3.7163  -3.6404  -3.6178
    -3.4993  -3.4992  -3.3136  -3.3020  -3.1973  -3.1908  -3.1269  -3.1255
    -1.1221  -0.7046   0.2835   0.3760   1.2392   1.3394   2.0028   2.1172
     2.5556   2.5828   2.9371   3.2909   3.5045   3.6404   3.6643   3.8465
     3.9870   4.0801   4.1055   4.3634   4.8551   4.9059   5.2167   5.3517
     5.4856   5.4966   5.6006   5.6763   9.5893   9.8053  10.1474  10.2400
    10.5744  10.6534  11.0039  11.0632  11.1920  11.2952  11.3323  11.3536
    11.6953  11.7380

          k = 0.0000 0.4000 0.0000 ( 24071 PWs)   bands (ev):

   -20.1869 -20.1790 -19.6232 -19.6093 -19.5577 -19.5528 -19.4413 -19.4387
   -19.4096 -19.4070  -5.2543  -5.1628  -5.1318  -5.0588  -5.0144  -4.8353
    -4.8189  -4.6861  -4.5546  -4.5050  -4.4892  -4.2700  -4.1789  -4.0088
    -3.9800  -3.9674  -3.8933  -3.8476  -3.7996  -3.7765  -3.7084  -3.6968
    -3.6721  -3.6174  -3.5098  -3.5059  -3.2443  -3.2318  -3.1702  -3.1685
    -1.0772  -0.4951   0.1996   0.2433   1.0524   1.2904   2.0694   2.2243
     2.8526   3.0843   3.1759   3.3353   3.4731   3.6181   3.6719   3.6796
     3.8109   3.9522   4.0427   4.2336   4.5467   4.7327   5.2351   5.3446
     5.4670   5.6664   5.7875   5.9284   9.4933   9.7294   9.8712  10.2243
    10.5718  10.5984  10.8762  10.8842  11.2348  11.3092  11.4034  11.7611
    11.7639  11.8470

          k = 0.0000 0.4000 0.1308 ( 24081 PWs)   bands (ev):

   -20.1862 -20.1797 -19.6221 -19.6109 -19.5570 -19.5531 -19.4410 -19.4389
   -19.4093 -19.4072  -5.2943  -5.2282  -5.0512  -5.0378  -4.9307  -4.8424
    -4.8193  -4.6789  -4.5898  -4.5061  -4.4451  -4.3009  -4.2532  -4.0425
    -3.9990  -3.9564  -3.9442  -3.8628  -3.7914  -3.7733  -3.7159  -3.6700
    -3.6139  -3.5938  -3.5119  -3.5077  -3.2434  -3.2336  -3.1702  -3.1691
    -0.9872  -0.4788   0.1297   0.2119   1.0907   1.3006   2.0537   2.1471
     2.8304   3.0380   3.1025   3.3674   3.4719   3.5211   3.6559   3.8481
     3.9512   4.0121   4.0962   4.2211   4.5628   4.7225   5.2275   5.3457
     5.4453   5.6134   5.7418   5.8640   9.5770   9.7633   9.9105  10.1754
    10.4765  10.6629  10.6672  10.8708  11.2846  11.3280  11.5176  11.7050
    11.7517  11.7817

          k = 0.0000 0.4000 0.2616 ( 24102 PWs)   bands (ev):

   -20.1842 -20.1817 -19.6189 -19.6147 -19.5554 -19.5540 -19.4404 -19.4396
   -19.4087 -19.4079  -5.3198  -5.2967  -4.9893  -4.9540  -4.8517  -4.8385
    -4.7957  -4.7178  -4.5835  -4.5201  -4.3712  -4.3673  -4.3399  -4.2119
    -3.9755  -3.9549  -3.9261  -3.8893  -3.8206  -3.8147  -3.6514  -3.6272
    -3.5807  -3.5691  -3.5104  -3.5098  -3.2411  -3.2376  -3.1702  -3.1700
    -0.7613  -0.5354   0.0558   0.1245   1.1916   1.2854   2.0184   2.0315
     2.8153   2.8784   3.2138   3.3172   3.3921   3.4174   3.8782   3.9421
     4.0064   4.0630   4.2492   4.2652   4.6075   4.6765   5.2493   5.3423
     5.4022   5.4946   5.6855   5.7375   9.7883   9.8876  10.0029  10.0466
    10.2698  10.2954  10.7692  10.8403  11.4667  11.5222  11.5442  11.6210
    11.7566  11.7893

          k = 0.2000 0.2000 0.0000 ( 24078 PWs)   bands (ev):

   -20.1920 -20.1750 -19.6555 -19.6362 -19.5014 -19.4981 -19.4785 -19.4775
   -19.3960 -19.3936  -5.3220  -5.1646  -5.0981  -5.0274  -4.9936  -4.9177
    -4.7910  -4.7395  -4.5344  -4.4871  -4.4580  -4.3476  -4.3005  -4.2709
    -4.1423  -3.9097  -3.8274  -3.7865  -3.7811  -3.7171  -3.6275  -3.5987
    -3.5565  -3.4676  -3.3920  -3.3836  -3.3654  -3.3399  -3.1382  -3.1350
    -1.3884  -0.1883   0.2419   0.3813   0.9420   0.9766   2.4921   2.5767
     2.5808   2.7088   2.8054   3.3168   3.4289   3.6064   3.6074   3.6802
     3.9354   4.1790   4.1904   4.2437   4.8044   4.9115   4.9563   5.3028
     5.3736   5.5087   5.8497   5.8884   9.2791  10.0394  10.2914  10.3223
    10.3954  10.4655  10.8966  11.0960  11.1615  11.2327  11.5385  11.6949
    11.7219  11.8038

          k = 0.2000 0.2000 0.1308 ( 24078 PWs)   bands (ev):

   -20.1904 -20.1766 -19.6536 -19.6380 -19.5011 -19.4984 -19.4784 -19.4776
   -19.3957 -19.3938  -5.3132  -5.1433  -5.1211  -5.0517  -4.9815  -4.8983
    -4.8024  -4.6487  -4.6340  -4.5028  -4.4457  -4.3396  -4.3124  -4.2353
    -4.1402  -3.9117  -3.8860  -3.8552  -3.7331  -3.6766  -3.6625  -3.6147
    -3.5074  -3.4678  -3.3894  -3.3830  -3.3696  -3.3432  -3.1386  -3.1359
    -1.2754  -0.3074   0.2662   0.3832   0.9500   0.9670   2.4318   2.5148
     2.6561   2.7011   2.8287   3.4204   3.4542   3.5219   3.6081   3.7454
     3.8988   4.0078   4.2489   4.2858   4.8462   4.9274   4.9939   5.3386
     5.3943   5.4865   5.7795   5.8191   9.3872   9.9600  10.2880  10.2959
    10.3539  10.5823  10.9554  10.9998  11.1230  11.3462  11.4017  11.5909
    11.7775  11.7835

          k = 0.2000 0.2000 0.2616 ( 24072 PWs)   bands (ev):

   -20.1862 -20.1809 -19.6488 -19.6428 -19.5003 -19.4992 -19.4781 -19.4778
   -19.3951 -19.3944  -5.2783  -5.2093  -5.0965  -5.0546  -4.9270  -4.8471
    -4.8010  -4.8003  -4.5462  -4.4968  -4.4656  -4.3627  -4.2555  -4.2223
    -4.1444  -4.0792  -3.8502  -3.8419  -3.7126  -3.6977  -3.6448  -3.6447
    -3.4722  -3.4678  -3.3843  -3.3778  -3.3714  -3.3538  -3.1388  -3.1378
    -0.9818  -0.6145   0.3225   0.3699   0.9633   0.9646   2.3479   2.3847
     2.7311   2.7321   3.0216   3.2739   3.4584   3.5037   3.6715   3.7689
     3.9495   4.0157   4.1861   4.2047   4.9120   4.9327   5.1677   5.3172
     5.4816   5.4936   5.6279   5.6552   9.6570   9.8837  10.1574  10.1925
    10.4331  10.5321  10.8498  10.9524  11.3275  11.4290  11.4385  11.5774
    11.6122  11.7473

          k = 0.2000 0.4000 0.0000 ( 24067 PWs)   bands (ev):

   -20.1855 -20.1791 -19.6075 -19.5964 -19.5457 -19.5432 -19.4550 -19.4550
   -19.4213 -19.4200  -5.2005  -5.1221  -5.0976  -5.0545  -5.0151  -4.8635
    -4.7174  -4.5848  -4.5619  -4.4993  -4.3297  -4.2466  -4.2221  -4.0572
    -4.0061  -3.9690  -3.9352  -3.9008  -3.8876  -3.8074  -3.7551  -3.6504
    -3.6253  -3.6226  -3.5818  -3.5443  -3.3204  -3.3186  -3.2224  -3.2187
    -0.9372  -0.4084   0.2116   0.3162   0.7626   0.8555   2.5649   2.6549
     2.9402   3.1298   3.1499   3.3320   3.4009   3.5387   3.6310   3.6619
     3.8220   3.9288   3.9783   4.2917   4.5119   4.7921   5.1157   5.2818
     5.4332   5.6858   5.7077   5.8735   9.4963   9.7144  10.0212  10.2513
    10.5144  10.6922  10.8344  11.0160  11.1251  11.3439  11.3973  11.5280
    11.7852  11.8184

          k = 0.2000 0.4000 0.1308 ( 24071 PWs)   bands (ev):

   -20.1849 -20.1797 -19.6066 -19.5976 -19.5453 -19.5433 -19.4554 -19.4546
   -19.4212 -19.4201  -5.2381  -5.1780  -5.0508  -5.0059  -4.9404  -4.8565
    -4.7343  -4.6126  -4.5806  -4.4905  -4.3429  -4.2564  -4.2375  -4.0791
    -4.0242  -4.0167  -3.9484  -3.8871  -3.8375  -3.7902  -3.7407  -3.6668
    -3.6287  -3.5981  -3.5830  -3.5477  -3.3218  -3.3181  -3.2233  -3.2189
    -0.8574  -0.4013   0.1726   0.2870   0.7781   0.8560   2.5301   2.6104
     2.9303   3.0666   3.1529   3.2978   3.3491   3.5693   3.6877   3.7481
     3.8767   3.9391   4.0252   4.2843   4.5225   4.7854   5.1241   5.2564
     5.4553   5.6440   5.6887   5.8205   9.5768   9.7608  10.0606  10.2552
    10.4622  10.6182  10.7771  10.8567  11.2556  11.3711  11.4706  11.5887
    11.6762  11.7810

          k = 0.2000 0.4000 0.2616 ( 24074 PWs)   bands (ev):

   -20.1833 -20.1813 -19.6041 -19.6006 -19.5446 -19.5435 -19.4556 -19.4544
   -19.4210 -19.4202  -5.2640  -5.2353  -4.9951  -4.9114  -4.8533  -4.8181
    -4.7677  -4.7232  -4.5891  -4.4888  -4.3392  -4.2844  -4.2463  -4.1984
    -4.0350  -3.9802  -3.9409  -3.8792  -3.8546  -3.7870  -3.7102  -3.6404
    -3.6130  -3.5932  -3.5824  -3.5661  -3.3241  -3.3169  -3.2245  -3.2196
    -0.6594  -0.4631   0.1402   0.2098   0.8090   0.8565   2.4306   2.6052
     2.8781   2.9897   3.2234   3.2463   3.2953   3.5228   3.7916   3.8622
     3.8974   4.0171   4.0957   4.2898   4.5413   4.7711   5.1532   5.2110
     5.4938   5.5621   5.6666   5.7179   9.7916   9.9028  10.1045  10.1939
    10.2571  10.4795  10.6025  10.8397  11.3832  11.4433  11.4985  11.6233
    11.7781  11.8324

          k = 0.4000 0.4000 0.0000 ( 24046 PWs)   bands (ev):

   -20.1824 -20.1800 -19.5667 -19.5629 -19.5325 -19.5286 -19.4819 -19.4742
   -19.4536 -19.4510  -5.1235  -5.1081  -5.0978  -5.0412  -4.8930  -4.7852
    -4.5380  -4.5206  -4.4589  -4.3617  -4.2601  -4.2173  -4.2040  -4.1271
    -4.0740  -4.0270  -4.0170  -3.9820  -3.9708  -3.9037  -3.8887  -3.7334
    -3.6250  -3.6096  -3.6095  -3.5530  -3.4226  -3.3914  -3.3503  -3.3271
    -0.5883  -0.2675   0.0737   0.2981   0.5047   0.5808   2.8147   2.9190
     3.1303   3.1865   3.2133   3.2869   3.6365   3.6420   3.7191   3.7433
     3.7586   3.8827   4.1052   4.2195   4.5324   4.6232   4.8303   4.8475
     5.5452   5.6172   5.7132   5.7703   9.4987   9.5747  10.1394  10.2505
    10.5743  10.9341  10.9458  10.9788  11.1400  11.5018  11.5910  11.6189
    11.6277  11.7693

          k = 0.4000 0.4000 0.1308 ( 24022 PWs)   bands (ev):

   -20.1822 -20.1802 -19.5664 -19.5633 -19.5321 -19.5289 -19.4812 -19.4751
   -19.4532 -19.4511  -5.1279  -5.1104  -5.0891  -4.9989  -4.8809  -4.8073
    -4.5598  -4.5193  -4.4988  -4.3648  -4.3120  -4.2483  -4.1840  -4.1129
    -4.1104  -3.9978  -3.9741  -3.9532  -3.9147  -3.8805  -3.8760  -3.7404
    -3.6708  -3.6338  -3.6088  -3.5739  -3.4165  -3.3913  -3.3497  -3.3299
    -0.5362  -0.2718   0.1195   0.3147   0.4693   0.5380   2.8241   2.9229
     3.0915   3.1586   3.2038   3.2415   3.5907   3.6549   3.7278   3.8059
     3.8157   3.8710   4.1175   4.1850   4.5513   4.6259   4.8088   4.8273
     5.5474   5.6042   5.7344   5.7867   9.5911   9.6567  10.2211  10.2823
    10.5258  10.7763  10.8218  10.9081  11.1884  11.4219  11.4425  11.5570
    11.7282  11.8610

          k = 0.4000 0.4000 0.2616 ( 24029 PWs)   bands (ev):

   -20.1815 -20.1808 -19.5655 -19.5643 -19.5311 -19.5299 -19.4795 -19.4772
   -19.4523 -19.4515  -5.1372  -5.1300  -5.0119  -4.9161  -4.9136  -4.8433
    -4.6011  -4.5994  -4.4510  -4.3912  -4.3565  -4.3124  -4.1458  -4.1227
    -4.0663  -4.0241  -3.9382  -3.9339  -3.8505  -3.8442  -3.7660  -3.7290
    -3.7203  -3.6774  -3.6664  -3.6294  -3.4045  -3.3948  -3.3454  -3.3372
    -0.4161  -0.3116   0.2356   0.3629   0.3698   0.4443   2.8593   2.9058
     3.0487   3.0806   3.1976   3.2069   3.5792   3.6257   3.7487   3.7783
     3.9230   3.9507   4.1094   4.1188   4.5906   4.6200   4.7860   4.7952
     5.5504   5.5692   5.7836   5.8052   9.8545   9.8986  10.2608  10.2711
    10.4210  10.5313  10.5409  10.7156  11.2930  11.4231  11.4398  11.4474
    11.9253  11.9689

     the Fermi energy is     8.4582 ev

!    total energy              =    -758.70071482 Ry
     estimated scf accuracy    <          6.1E-09 Ry
     smearing contrib. (-TS)   =      -0.00000000 Ry
     internal energy E=F+TS    =    -758.70071482 Ry

     The total energy is F=E-TS. E is the sum of the following terms:
     one-electron contribution =     -62.92704486 Ry
     hartree contribution      =      85.35635601 Ry
     xc contribution           =    -113.36869960 Ry
     ewald contribution        =    -459.62368793 Ry
     one-center paw contrib.   =    -208.13763845 Ry

     convergence has been achieved in   8 iterations

     Forces acting on atoms (cartesian axes, Ry/au):

     atom    1 type  3   force =     0.00051621   -0.00051621    0.00000000
     atom    2 type  3   force =    -0.00051621    0.00051621    0.00000000
     atom    3 type  3   force =     0.00051621    0.00051621    0.00000000
     atom    4 type  3   force =    -0.00051621   -0.00051621    0.00000000
     atom    5 type  3   force =    -0.00051621    0.00051621    0.00000000
     atom    6 type  3   force =     0.00051621   -0.00051621   -0.00000000
     atom    7 type  3   force =    -0.00051621   -0.00051621    0.00000000
     atom    8 type  3   force =     0.00051621    0.00051621   -0.00000000
     atom    9 type  3   force =     0.00000000    0.00000000    0.00000000
     atom   10 type  3   force =     0.00000000    0.00000000    0.00000000
     atom   11 type  1   force =     0.00000000    0.00000000   -0.00000000
     atom   12 type  1   force =     0.00000000    0.00000000    0.00000000
     atom   13 type  1   force =     0.00000000    0.00000000    0.00000000
     atom   14 type  1   force =     0.00000000    0.00000000    0.00000000
     atom   15 type  1   force =     0.00000000    0.00000000    0.00000000
     atom   16 type  1   force =     0.00000000    0.00000000    0.00000000
     atom   17 type  2   force =     0.00010607   -0.00020063   -0.00090032
     atom   18 type  2   force =    -0.00010607    0.00020063    0.00090032
     atom   19 type  2   force =     0.00020063    0.00010607   -0.00090032
     atom   20 type  2   force =    -0.00020063   -0.00010607    0.00090032
     atom   21 type  2   force =    -0.00010607    0.00020063   -0.00090032
     atom   22 type  2   force =     0.00010607   -0.00020063    0.00090032
     atom   23 type  2   force =    -0.00020063   -0.00010607   -0.00090032
     atom   24 type  2   force =     0.00020063    0.00010607    0.00090032
     atom   25 type  2   force =     0.00010607    0.00020063    0.00090032
     atom   26 type  2   force =    -0.00010607   -0.00020063   -0.00090032
     atom   27 type  2   force =     0.00020063   -0.00010607    0.00090032
     atom   28 type  2   force =    -0.00020063    0.00010607   -0.00090032
     atom   29 type  2   force =    -0.00010607   -0.00020063    0.00090032
     atom   30 type  2   force =     0.00010607    0.00020063   -0.00090032
     atom   31 type  2   force =    -0.00020063    0.00010607    0.00090032
     atom   32 type  2   force =     0.00020063   -0.00010607   -0.00090032
     atom   33 type  2   force =     0.00027582   -0.00027897   -0.00000000
     atom   34 type  2   force =    -0.00027582    0.00027897   -0.00000000
     atom   35 type  2   force =     0.00027897    0.00027582   -0.00000000
     atom   36 type  2   force =    -0.00027897   -0.00027582   -0.00000000
     atom   37 type  2   force =     0.00027582    0.00027897    0.00000000
     atom   38 type  2   force =    -0.00027582   -0.00027897    0.00000000
     atom   39 type  2   force =     0.00027897   -0.00027582   -0.00000000
     atom   40 type  2   force =    -0.00027897    0.00027582   -0.00000000
     atom   41 type  2   force =     0.00000000    0.00000000   -0.00041211
     atom   42 type  2   force =     0.00000000    0.00000000    0.00041211
     atom   43 type  2   force =     0.00000000    0.00000000    0.00041211
     atom   44 type  2   force =     0.00000000    0.00000000   -0.00041211

     Total force =     0.004468     Total SCF correction =     0.000125


     Computing stress (Cartesian axis) and pressure

          total   stress  (Ry/bohr**3)                   (kbar)     P=      189.92
   0.00112366   0.00000000   0.00000000          165.30        0.00        0.00
   0.00000000   0.00112366   0.00000000            0.00      165.30        0.00
   0.00000000   0.00000000   0.00162587            0.00        0.00      239.17


     BFGS Geometry Optimization
     Energy error            =      0.0E+00 Ry
     Gradient error          =      9.0E-04 Ry/Bohr
     Cell gradient error     =      2.4E+02 kbar

     number of scf cycles    =   1
     number of bfgs steps    =   0

     enthalpy           new  =    -758.7007148224 Ry

     new trust radius        =       0.4502286921 bohr
     new conv_thr            =       0.0000000100 Ry

     new unit-cell volume =   3373.83132 a.u.^3 (   499.95022 Ang^3 )
     density =      3.47012 g/cm^3

CELL_PARAMETERS (alat= 12.61135185)
   1.028091608   0.000000000   0.000000000
   0.000000000   1.028091608   0.000000000
   0.000000000   0.000000000   1.591383349

ATOMIC_POSITIONS (crystal)
Rb            0.1891794221        0.3108205779        0.2500000000
Rb            0.8108205779        0.6891794221        0.7500000000
Rb            0.6891794221        0.1891794221        0.2500000000
Rb            0.3108205779        0.8108205779        0.7500000000
Rb            0.8108205779        0.6891794221        0.2500000000
Rb            0.1891794221        0.3108205779        0.7500000000
Rb            0.3108205779        0.8108205779        0.2500000000
Rb            0.6891794221        0.1891794221        0.7500000000
Rb            0.0000000000        0.0000000000        0.5000000000
Rb            0.5000000000        0.5000000000        0.0000000000
Al            0.0000000000        0.5000000000       -0.0000000000
Al            0.5000000000        0.0000000000        0.0000000000
Al            0.5000000000        0.0000000000        0.5000000000
Al            0.0000000000        0.5000000000        0.5000000000
Al            0.0000000000        0.0000000000        0.0000000000
Al            0.5000000000        0.5000000000        0.5000000000
H             0.0842122213        0.6544606675        0.3905384210
H             0.9157877787        0.3455393325        0.6094615790
H             0.3455393325        0.0842122213        0.3905384210
H             0.6544606675        0.9157877787        0.6094615790
H             0.9157877787        0.3455393325        0.3905384210
H             0.0842122213        0.6544606675        0.6094615790
H             0.6544606675        0.9157877787        0.3905384210
H             0.3455393325        0.0842122213        0.6094615790
H             0.5842122213        0.8455393325        0.1094615790
H             0.4157877787        0.1544606675        0.8905384210
H             0.8455393325        0.4157877787        0.1094615790
H             0.1544606675        0.5842122213        0.8905384210
H             0.4157877787        0.1544606675        0.1094615790
H             0.5842122213        0.8455393325        0.8905384210
H             0.1544606675        0.5842122213        0.1094615790
H             0.8455393325        0.4157877787        0.8905384210
H             0.1051146409        0.2469493457       -0.0000000000
H             0.8948853591        0.7530506543       -0.0000000000
H             0.7530506543        0.1051146409       -0.0000000000
H             0.2469493457        0.8948853591       -0.0000000000
H             0.6051146409        0.2530506543        0.5000000000
H             0.3948853591        0.7469493457        0.5000000000
H             0.2530506543        0.3948853591        0.5000000000
H             0.7469493457        0.6051146409        0.5000000000
H             0.0000000000        0.0000000000        0.1641597560
H             0.0000000000        0.0000000000        0.8358402440
H             0.5000000000        0.5000000000        0.3358402440
H             0.5000000000        0.5000000000        0.6641597560



     Writing output data file ./Rb5Al3H14.save/
     NEW-OLD atomic charge density approx. for the potential
     extrapolated charge  148.33253, renormalised to  136.00000

     total cpu time spent up to now is      133.2 secs

     Self-consistent Calculation

     iteration #  1     ecut=    60.00 Ry     beta= 0.70
     Davidson diagonalization with overlap
     c_bands:  1 eigenvalues not converged
     c_bands:  1 eigenvalues not converged
     c_bands:  1 eigenvalues not converged
     c_bands:  2 eigenvalues not converged
     c_bands:  1 eigenvalues not converged
     ethr =  1.00E-06,  avg # of iterations = 17.7

     total cpu time spent up to now is      163.0 secs

     total energy              =    -757.92593706 Ry
     estimated scf accuracy    <       0.60214310 Ry

     iteration #  2     ecut=    60.00 Ry     beta= 0.70
     Davidson diagonalization with overlap
     ethr =  4.43E-04,  avg # of iterations =  8.7

     total cpu time spent up to now is      178.7 secs

     total energy              =    -759.01612932 Ry
     estimated scf accuracy    <       1.33537064 Ry

     iteration #  3     ecut=    60.00 Ry     beta= 0.70
     Davidson diagonalization with overlap
     ethr =  4.43E-04,  avg # of iterations =  2.3

     total cpu time spent up to now is      188.5 secs

     total energy              =    -759.06031567 Ry
     estimated scf accuracy    <       0.25110011 Ry

     iteration #  4     ecut=    60.00 Ry     beta= 0.70
     Davidson diagonalization with overlap
     ethr =  1.85E-04,  avg # of iterations =  1.9

     total cpu time spent up to now is      196.9 secs

     total energy              =    -759.02579669 Ry
     estimated scf accuracy    <       0.12960629 Ry

     iteration #  5     ecut=    60.00 Ry     beta= 0.70
     Davidson diagonalization with overlap
     ethr =  9.53E-05,  avg # of iterations =  4.3

     total cpu time spent up to now is      206.5 secs

     total energy              =    -759.00019930 Ry
     estimated scf accuracy    <       0.04482044 Ry

     iteration #  6     ecut=    60.00 Ry     beta= 0.70
     Davidson diagonalization with overlap
     ethr =  3.30E-05,  avg # of iterations =  9.1

     total cpu time spent up to now is      221.5 secs

     total energy              =    -759.01335337 Ry
     estimated scf accuracy    <       0.00182524 Ry

     iteration #  7     ecut=    60.00 Ry     beta= 0.70
     Davidson diagonalization with overlap
     ethr =  1.34E-06,  avg # of iterations =  9.3

     total cpu time spent up to now is      236.4 secs

     total energy              =    -759.01387338 Ry
     estimated scf accuracy    <       0.00012334 Ry

     iteration #  8     ecut=    60.00 Ry     beta= 0.70
     Davidson diagonalization with overlap
     ethr =  9.07E-08,  avg # of iterations =  2.2

     total cpu time spent up to now is      247.2 secs

     total energy              =    -759.01390596 Ry
     estimated scf accuracy    <       0.00002280 Ry

     iteration #  9     ecut=    60.00 Ry     beta= 0.70
     Davidson diagonalization with overlap
     ethr =  1.68E-08,  avg # of iterations =  1.3

     total cpu time spent up to now is      255.2 secs

     total energy              =    -759.01390400 Ry
     estimated scf accuracy    <       0.00000567 Ry

     iteration # 10     ecut=    60.00 Ry     beta= 0.70
     Davidson diagonalization with overlap
     ethr =  4.17E-09,  avg # of iterations =  2.0

     total cpu time spent up to now is      265.4 secs

     total energy              =    -759.01390522 Ry
     estimated scf accuracy    <       0.00000008 Ry

     iteration # 11     ecut=    60.00 Ry     beta= 0.70
     Davidson diagonalization with overlap
     ethr =  5.52E-11,  avg # of iterations =  4.6

     total cpu time spent up to now is      277.4 secs

     End of self-consistent calculation

          k = 0.0000 0.0000 0.0000 ( 24099 PWs)   bands (ev):

   -21.0803 -21.0665 -20.6133 -20.5995 -20.4557 -20.4557 -20.4541 -20.4541
   -20.3809 -20.3794  -6.0760  -5.8787  -5.7930  -5.7278  -5.7278  -5.5738
    -5.5579  -5.4681  -5.3239  -5.3239  -5.3051  -5.3051  -5.2919  -5.0937
    -5.0937  -4.7578  -4.7152  -4.7152  -4.6864  -4.6092  -4.5476  -4.5476
    -4.4862  -4.4520  -4.2259  -4.2158  -4.1767  -4.1767  -4.1731  -4.1731
    -2.3401  -1.1015  -0.5935  -0.0858   0.6368   1.1260   1.1260   1.2045
     1.4951   1.6054   1.6054   2.3715   2.5888   2.9121   3.0066   3.0066
     3.4754   3.4754   3.6053   3.6938   3.8518   3.8999   3.9845   4.0974
     4.0974   4.8897   4.8897   4.9544   8.2290   9.0829   9.1995   9.2277
     9.7438   9.7438   9.7945   9.7945  10.0397  10.2491  10.4787  10.5139
    10.5139  10.5885

          k = 0.0000 0.0000 0.1257 ( 24099 PWs)   bands (ev):

   -21.0790 -21.0679 -20.6119 -20.6008 -20.4556 -20.4556 -20.4543 -20.4543
   -20.3808 -20.3796  -6.0514  -5.8711  -5.8018  -5.7073  -5.7060  -5.7060
    -5.5463  -5.4320  -5.4320  -5.3209  -5.3025  -5.2156  -5.2156  -5.0966
    -5.0966  -4.7459  -4.7434  -4.6999  -4.6999  -4.6232  -4.5630  -4.5630
    -4.4825  -4.4550  -4.2250  -4.2169  -4.1768  -4.1768  -4.1738  -4.1738
    -2.2297  -1.2424  -0.5520  -0.1438   0.6763   1.1206   1.1717   1.1717
     1.5609   1.5609   1.6458   2.4685   2.7030   2.7479   3.0224   3.0224
     3.3729   3.3729   3.4196   3.5552   3.8922   4.0445   4.0880   4.2303
     4.2303   4.8419   4.8419   4.8842   8.3176   8.8222   9.1775   9.5522
     9.7942   9.7942   9.8266   9.8266   9.9438  10.0611  10.2264  10.5078
    10.5078  10.5418

          k = 0.0000 0.0000 0.2514 ( 24048 PWs)   bands (ev):

   -21.0756 -21.0714 -20.6084 -20.6042 -20.4552 -20.4552 -20.4547 -20.4547
   -20.3804 -20.3799  -5.9786  -5.8615  -5.8506  -5.8242  -5.6431  -5.6431
    -5.5474  -5.5474  -5.4803  -5.3943  -5.1485  -5.1485  -5.1114  -5.1114
    -5.0935  -4.8970  -4.7060  -4.6601  -4.6578  -4.6578  -4.6047  -4.6047
    -4.4734  -4.4629  -4.2227  -4.2197  -4.1766  -4.1766  -4.1754  -4.1754
    -1.9423  -1.5732  -0.4378  -0.2834   0.7884   0.9519   1.2922   1.2922
     1.4416   1.4416   1.9912   2.3926   2.7266   2.9747   3.0734   3.0837
     3.0837   3.2066   3.2066   3.2893   3.9846   4.0580   4.3975   4.4763
     4.4763   4.6854   4.6985   4.6985   8.5160   8.6590   9.1430   9.3774
     9.8761   9.8761   9.8946   9.8946  10.0526  10.1137  10.1745  10.3714
    10.5658  10.5658

          k = 0.0000 0.1945 0.0000 ( 24103 PWs)   bands (ev):

   -21.0786 -21.0675 -20.5993 -20.5875 -20.4720 -20.4714 -20.4477 -20.4461
   -20.3863 -20.3849  -6.0357  -5.8601  -5.7510  -5.7368  -5.6814  -5.5890
    -5.5738  -5.5009  -5.3877  -5.2777  -5.2652  -5.2270  -5.1658  -5.1526
    -4.9941  -4.7633  -4.7358  -4.7217  -4.6753  -4.6080  -4.6030  -4.5566
    -4.4870  -4.4749  -4.3540  -4.3218  -4.2519  -4.2361  -4.1874  -4.1850
    -2.1560  -1.0814  -0.5523  -0.3228   0.4227   0.6978   1.2197   1.5603
     1.6492   1.9256   1.9539   2.4587   2.6243   2.8068   2.9306   2.9752
     3.2540   3.2615   3.3131   3.4775   3.9540   3.9928   4.1184   4.1971
     4.4236   4.8013   4.8735   4.9164   8.2933   9.0184   9.1784   9.2201
     9.5586   9.6928   9.7262   9.8091   9.9152  10.2762  10.4358  10.6329
    10.7324  10.8360

          k = 0.0000 0.1945 0.1257 ( 24094 PWs)   bands (ev):

   -21.0775 -21.0686 -20.5982 -20.5886 -20.4719 -20.4715 -20.4475 -20.4463
   -20.3862 -20.3850  -6.0200  -5.8585  -5.7489  -5.7353  -5.7211  -5.6458
    -5.5041  -5.4324  -5.4232  -5.3391  -5.2730  -5.1904  -5.1642  -5.1103
    -5.0045  -4.7918  -4.7407  -4.7241  -4.6786  -4.6278  -4.5943  -4.5584
    -4.4825  -4.4763  -4.3473  -4.3235  -4.2498  -4.2374  -4.1874  -4.1856
    -2.0593  -1.1964  -0.5267  -0.3422   0.4465   0.6652   1.2477   1.5120
     1.7663   1.9032   1.9258   2.5568   2.6776   2.6946   2.9670   2.9891
     3.0753   3.2254   3.3341   3.4760   3.9954   4.0383   4.1273   4.2848
     4.4707   4.7476   4.8141   4.8657   8.3894   8.8670   9.1419   9.3284
     9.6251   9.6282   9.7080   9.9026   9.9864  10.2406  10.3231  10.4022
    10.7008  10.7589

          k = 0.0000 0.1945 0.2514 ( 24064 PWs)   bands (ev):

   -21.0748 -21.0714 -20.5952 -20.5916 -20.4718 -20.4716 -20.4471 -20.4467
   -20.3858 -20.3854  -5.9721  -5.8982  -5.7877  -5.7698  -5.6509  -5.6051
    -5.5421  -5.5147  -5.3826  -5.3225  -5.2560  -5.2027  -5.0834  -5.0647
    -5.0260  -4.9365  -4.7232  -4.7094  -4.6525  -4.6503  -4.5926  -4.5750
    -4.4805  -4.4790  -4.3361  -4.3281  -4.2453  -4.2408  -4.1873  -4.1866
    -1.8051  -1.4795  -0.4630  -0.3926   0.5094   0.5908   1.3209   1.4164
     1.8414   1.8696   2.0928   2.4233   2.7173   2.8330   2.8488   3.0041
     3.1037   3.1491   3.2183   3.4027   4.0284   4.0512   4.3465   4.4599
     4.5790   4.5923   4.6655   4.7354   8.6183   8.7607   9.0658   9.1952
     9.5625   9.5738   9.9120  10.0123  10.1524  10.2330  10.2691  10.3187
    10.6066  10.6476

          k = 0.0000 0.3891 0.0000 ( 24071 PWs)   bands (ev):

   -21.0746 -21.0704 -20.5620 -20.5547 -20.5136 -20.5109 -20.4271 -20.4257
   -20.4032 -20.4019  -5.9352  -5.8206  -5.7921  -5.7785  -5.6651  -5.5581
    -5.5401  -5.4267  -5.3591  -5.2936  -5.2649  -5.0864  -5.0227  -4.8779
    -4.8657  -4.8333  -4.7926  -4.7649  -4.7372  -4.7307  -4.6371  -4.6302
    -4.6185  -4.5825  -4.5005  -4.4957  -4.2793  -4.2708  -4.2220  -4.2205
    -1.7187  -1.2250  -0.6408  -0.5691   0.3509   0.5308   1.3664   1.4861
     2.0319   2.3405   2.4077   2.4796   2.6879   2.7695   2.8419   2.8899
     2.9586   3.0947   3.1155   3.3689   3.7555   3.8735   4.3849   4.4450
     4.5988   4.7189   4.7812   4.9284   8.4870   8.6314   8.8772   9.2589
     9.5454   9.5926   9.8192   9.8556  10.0715  10.2202  10.4015  10.5881
    10.6372  10.6837

          k = 0.0000 0.3891 0.1257 ( 24081 PWs)   bands (ev):

   -21.0742 -21.0708 -20.5614 -20.5555 -20.5133 -20.5111 -20.4269 -20.4258
   -20.4031 -20.4020  -5.9569  -5.8879  -5.7376  -5.7282  -5.6196  -5.5742
    -5.5321  -5.4285  -5.3763  -5.2951  -5.2382  -5.1013  -5.0691  -4.9270
    -4.8611  -4.8436  -4.8304  -4.7786  -4.7096  -4.6775  -4.6659  -4.6359
    -4.5829  -4.5603  -4.5016  -4.4985  -4.2787  -4.2719  -4.2220  -4.2209
    -1.6518  -1.2298  -0.6804  -0.5950   0.3770   0.5299   1.3591   1.4401
     2.0412   2.2670   2.3445   2.5471   2.6742   2.7577   2.8189   2.9532
     3.0430   3.1032   3.2051   3.3597   3.7665   3.8717   4.3705   4.4532
     4.5696   4.6778   4.7654   4.8847   8.5659   8.6777   8.9187   9.2232
     9.4027   9.5531   9.6608   9.8572  10.1550  10.2721  10.5099  10.6254
    10.6779  10.6976

          k = 0.0000 0.3891 0.2514 ( 24102 PWs)   bands (ev):

   -21.0731 -21.0718 -20.5597 -20.5574 -20.5125 -20.5117 -20.4266 -20.4262
   -20.4028 -20.4023  -5.9709  -5.9481  -5.6825  -5.6574  -5.5873  -5.5564
    -5.5205  -5.4834  -5.3493  -5.3063  -5.1754  -5.1329  -5.1312  -5.0670
    -4.8472  -4.8330  -4.8282  -4.8013  -4.7095  -4.7051  -4.6183  -4.6168
    -4.5518  -4.5468  -4.5027  -4.5018  -4.2771  -4.2746  -4.2219  -4.2216
    -1.4830  -1.3054  -0.7128  -0.6610   0.4429   0.5064   1.3467   1.3672
     2.0650   2.1306   2.4196   2.5161   2.6234   2.6541   2.9995   3.0588
     3.0770   3.0864   3.3439   3.3610   3.7982   3.8455   4.3789   4.4652
     4.5052   4.5830   4.7589   4.8038   8.7812   8.8356   9.0109   9.0791
     9.1669   9.1713   9.7634   9.8296  10.3762  10.4242  10.4965  10.5834
    10.6487  10.6700

          k = 0.1945 0.1945 0.0000 ( 24078 PWs)   bands (ev):

   -21.0772 -21.0683 -20.5860 -20.5759 -20.4713 -20.4696 -20.4554 -20.4548
   -20.3929 -20.3917  -5.9920  -5.8212  -5.7501  -5.7317  -5.6524  -5.6195
    -5.5650  -5.4676  -5.3290  -5.2792  -5.2285  -5.1909  -5.1279  -5.1116
    -5.0054  -4.7885  -4.7383  -4.7126  -4.6926  -4.6513  -4.5897  -4.5689
    -4.5051  -4.4548  -4.3956  -4.3946  -4.3871  -4.3600  -4.1984  -4.1957
    -1.9939  -1.0513  -0.4978  -0.3926   0.2044   0.2449   1.7722   1.7852
     1.8411   2.0112   2.0272   2.5373   2.6451   2.7436   2.8129   2.8400
     3.0646   3.1789   3.3131   3.3218   3.9999   4.0721   4.1204   4.4189
     4.4239   4.6431   4.8875   4.8929   8.3520   8.8943   9.1553   9.3507
     9.3532   9.4282   9.8699   9.9637   9.9823  10.1325  10.5775  10.6813
    10.6821  10.7558

          k = 0.1945 0.1945 0.1257 ( 24078 PWs)   bands (ev):

   -21.0763 -21.0691 -20.5850 -20.5768 -20.4712 -20.4698 -20.4553 -20.4548
   -20.3928 -20.3918  -5.9818  -5.8057  -5.7955  -5.7321  -5.6653  -5.6056
    -5.5180  -5.4189  -5.4143  -5.2740  -5.2424  -5.1529  -5.1438  -5.0898
    -5.0053  -4.8238  -4.7734  -4.7339  -4.6589  -4.6248  -4.6030  -4.5793
    -4.4847  -4.4555  -4.3972  -4.3907  -4.3894  -4.3624  -4.1985  -4.1963
    -1.9079  -1.1484  -0.4817  -0.3950   0.2103   0.2379   1.7318   1.7961
     1.8740   2.0075   2.0373   2.6048   2.6616   2.6690   2.7950   2.8862
     3.0608   3.1010   3.3033   3.3443   4.0321   4.0952   4.1396   4.4563
     4.4590   4.6107   4.8300   4.8379   8.4445   8.8616   9.1629   9.2502
     9.3797   9.5015   9.7829   9.9482  10.0232  10.2489  10.3929  10.5915
    10.6683  10.7743

          k = 0.1945 0.1945 0.2514 ( 24072 PWs)   bands (ev):

   -21.0741 -21.0714 -20.5825 -20.5794 -20.4707 -20.4702 -20.4551 -20.4550
   -20.3925 -20.3921  -5.9469  -5.8827  -5.7702  -5.7367  -5.6250  -5.5679
    -5.5278  -5.5216  -5.2964  -5.2858  -5.2613  -5.1887  -5.0915  -5.0734
    -5.0052  -4.9496  -4.7417  -4.7361  -4.6436  -4.6395  -4.5939  -4.5925
    -4.4635  -4.4574  -4.3972  -4.3940  -4.3811  -4.3699  -4.1984  -4.1975
    -1.6814  -1.3933  -0.4443  -0.4102   0.2220   0.2298   1.6805   1.7086
     1.9891   2.0140   2.1783   2.4241   2.6675   2.6971   2.8192   2.9063
     3.1109   3.1206   3.2409   3.2680   4.0712   4.0841   4.3090   4.4650
     4.5545   4.5855   4.7009   4.7030   8.6743   8.8413   9.0888   9.0969
     9.4430   9.4966   9.6895   9.8306  10.2447  10.3581  10.4006  10.5332
    10.5348  10.6352

          k = 0.1945 0.3891 0.0000 ( 24067 PWs)   bands (ev):

   -21.0738 -21.0705 -20.5503 -20.5444 -20.5046 -20.5032 -20.4377 -20.4377
   -20.4122 -20.4115  -5.8941  -5.7754  -5.7736  -5.7585  -5.6810  -5.5705
    -5.4771  -5.3471  -5.3256  -5.3072  -5.1534  -5.0711  -5.0388  -4.9327
    -4.8716  -4.8426  -4.8191  -4.8008  -4.7964  -4.7232  -4.6627  -4.6179
    -4.5911  -4.5900  -4.5571  -4.5392  -4.3423  -4.3402  -4.2651  -4.2619
    -1.5939  -1.1443  -0.6111  -0.5030   0.0261   0.0891   1.8721   1.9230
     2.1203   2.3614   2.3945   2.4981   2.5968   2.7228   2.7695   2.8878
     2.9143   3.0492   3.0838   3.4362   3.7174   3.9392   4.2696   4.4284
     4.5321   4.7282   4.7463   4.8829   8.4685   8.5976   9.0009   9.2140
     9.4881   9.6673   9.7283   9.9426  10.0018  10.2577  10.3336  10.5102
    10.6749  10.8036

          k = 0.1945 0.3891 0.1257 ( 24071 PWs)   bands (ev):

   -21.0735 -21.0708 -20.5498 -20.5450 -20.5044 -20.5032 -20.4379 -20.4375
   -20.4121 -20.4115  -5.9128  -5.8497  -5.7225  -5.7034  -5.6318  -5.5687
    -5.4874  -5.3861  -5.3472  -5.2847  -5.1573  -5.0755  -5.0501  -4.9386
    -4.9061  -4.8836  -4.8205  -4.7868  -4.7369  -4.7115  -4.6681  -4.6280
    -4.5922  -4.5718  -4.5606  -4.5431  -4.3429  -4.3402  -4.2654  -4.2622
    -1.5345  -1.1537  -0.6330  -0.5269   0.0356   0.0882   1.8441   1.8993
     2.1346   2.3050   2.3815   2.5074   2.5310   2.7791   2.8420   2.8728
     2.9757   3.0574   3.1048   3.4335   3.7235   3.9392   4.2743   4.4079
     4.5480   4.7094   4.7260   4.8423   8.5428   8.6532   9.0494   9.2092
     9.4114   9.5587   9.6403   9.8083  10.1620  10.2968  10.3828  10.5723
    10.6045  10.7205

          k = 0.1945 0.3891 0.2514 ( 24074 PWs)   bands (ev):

   -21.0727 -21.0716 -20.5484 -20.5466 -20.5040 -20.5034 -20.4380 -20.4374
   -20.4120 -20.4116  -5.9266  -5.9016  -5.6815  -5.6207  -5.5690  -5.5399
    -5.5048  -5.4831  -5.3637  -5.2791  -5.1494  -5.0989  -5.0546  -5.0184
    -4.8993  -4.8771  -4.8121  -4.7808  -4.7414  -4.6993  -4.6532  -4.6072
    -4.5802  -4.5737  -4.5648  -4.5560  -4.3441  -4.3398  -4.2658  -4.2628
    -1.3853  -1.2282  -0.6417  -0.5871   0.0542   0.0851   1.7745   1.9054
     2.1399   2.2081   2.4365   2.4506   2.5074   2.7581   2.9176   2.9582
     3.0392   3.0557   3.1476   3.4370   3.7338   3.9344   4.2993   4.3627
     4.5867   4.6470   4.7193   4.7630   8.7467   8.8261   9.0751   9.1239
     9.1591   9.3806   9.5637   9.7677  10.3311  10.3824  10.4308  10.5312
    10.7130  10.7553

          k = 0.3891 0.3891 0.0000 ( 24046 PWs)   bands (ev):

   -21.0723 -21.0710 -20.5200 -20.5178 -20.4937 -20.4917 -20.4575 -20.4533
   -20.4364 -20.4350  -5.8158  -5.7699  -5.7646  -5.7526  -5.5994  -5.5095
    -5.3125  -5.3090  -5.2544  -5.1761  -5.0968  -5.0741  -4.9950  -4.9803
    -4.9241  -4.9103  -4.8654  -4.8608  -4.8425  -4.7994  -4.7675  -4.6743
    -4.5954  -4.5931  -4.5820  -4.5609  -4.4198  -4.4021  -4.3666  -4.3514
    -1.2724  -0.9887  -0.6857  -0.4557  -0.3499  -0.2665   2.0689   2.1565
     2.3253   2.4914   2.4926   2.5013   2.7233   2.7923   2.8624   2.8686
     2.9316   2.9738   3.2765   3.3826   3.7246   3.8049   3.9854   3.9997
     4.6679   4.6909   4.7654   4.7845   8.4000   8.4418   9.0490   9.1778
     9.5132   9.7826   9.8370   9.9529  10.2229  10.3209  10.4963  10.5090
    10.6484  10.7324

          k = 0.3891 0.3891 0.1257 ( 24022 PWs)   bands (ev):

   -21.0722 -21.0711 -20.5198 -20.5181 -20.4935 -20.4919 -20.4571 -20.4537
   -20.4362 -20.4351  -5.8216  -5.8054  -5.7415  -5.6969  -5.5913  -5.5286
    -5.3418  -5.3003  -5.2809  -5.1746  -5.1437  -5.0851  -4.9852  -4.9685
    -4.9321  -4.8712  -4.8671  -4.8322  -4.8089  -4.7814  -4.7593  -4.6796
    -4.6314  -4.5992  -4.5927  -4.5741  -4.4165  -4.4024  -4.3658  -4.3531
    -1.2336  -1.0007  -0.6518  -0.4449  -0.3797  -0.2957   2.0712   2.1537
     2.3280   2.4322   2.4664   2.4932   2.7595   2.8012   2.8257   2.9234
     2.9449   2.9924   3.2778   3.3554   3.7369   3.8019   3.9793   3.9888
     4.6674   4.7009   4.7565   4.7920   8.4817   8.5166   9.1216   9.2151
     9.4581   9.6541   9.7043   9.7794  10.2581  10.3046  10.4148  10.5077
    10.6944  10.8081

          k = 0.3891 0.3891 0.2514 ( 24029 PWs)   bands (ev):

   -21.0718 -21.0715 -20.5193 -20.5186 -20.4930 -20.4924 -20.4561 -20.4548
   -20.4357 -20.4353  -5.8297  -5.8266  -5.6828  -5.6201  -5.6118  -5.5642
    -5.3727  -5.3665  -5.2459  -5.2033  -5.1621  -5.1278  -4.9685  -4.9629
    -4.8974  -4.8766  -4.8329  -4.8271  -4.7621  -4.7407  -4.6916  -4.6850
    -4.6642  -4.6414  -4.6347  -4.6100  -4.4099  -4.4045  -4.3626  -4.3575
    -1.1407  -1.0495  -0.5645  -0.4603  -0.4128  -0.3585   2.0944   2.1329
     2.3210   2.3527   2.4544   2.4707   2.7956   2.7974   2.8525   2.8827
     3.0101   3.0456   3.2767   3.3022   3.7643   3.7892   3.9705   3.9730
     4.6702   4.6878   4.7743   4.7957   8.6976   8.7159   9.1777   9.2039
     9.3295   9.4196   9.4705   9.5955  10.3366  10.3451  10.4300  10.4316
    10.8377  10.9053

     the Fermi energy is     7.4173 ev

!    total energy              =    -759.01390527 Ry
     estimated scf accuracy    <          2.1E-09 Ry
     smearing contrib. (-TS)   =      -0.00000000 Ry
     internal energy E=F+TS    =    -759.01390527 Ry

     The total energy is F=E-TS. E is the sum of the following terms:
     one-electron contribution =     -84.66471878 Ry
     hartree contribution      =      91.19011365 Ry
     xc contribution           =    -112.30675605 Ry
     ewald contribution        =    -445.17620492 Ry
     one-center paw contrib.   =    -208.05633918 Ry

     convergence has been achieved in  11 iterations

     Forces acting on atoms (cartesian axes, Ry/au):

     atom    1 type  3   force =    -0.00109655    0.00109655    0.00000000
     atom    2 type  3   force =     0.00109655   -0.00109655   -0.00000000
     atom    3 type  3   force =    -0.00109655   -0.00109655    0.00000000
     atom    4 type  3   force =     0.00109655    0.00109655   -0.00000000
     atom    5 type  3   force =     0.00109655   -0.00109655    0.00000000
     atom    6 type  3   force =    -0.00109655    0.00109655   -0.00000000
     atom    7 type  3   force =     0.00109655    0.00109655    0.00000000
     atom    8 type  3   force =    -0.00109655   -0.00109655   -0.00000000
     atom    9 type  3   force =     0.00000000    0.00000000    0.00000000
     atom   10 type  3   force =     0.00000000    0.00000000    0.00000000
     atom   11 type  1   force =     0.00000000    0.00000000    0.00000000
     atom   12 type  1   force =     0.00000000    0.00000000    0.00000000
     atom   13 type  1   force =     0.00000000    0.00000000    0.00000000
     atom   14 type  1   force =     0.00000000    0.00000000    0.00000000
     atom   15 type  1   force =     0.00000000    0.00000000    0.00000000
     atom   16 type  1   force =     0.00000000    0.00000000    0.00000000
     atom   17 type  2   force =    -0.00645874   -0.00662537    0.00750922
     atom   18 type  2   force =     0.00645874    0.00662537   -0.00750922
     atom   19 type  2   force =     0.00662537   -0.00645874    0.00750922
     atom   20 type  2   force =    -0.00662537    0.00645874   -0.00750922
     atom   21 type  2   force =     0.00645874    0.00662537    0.00750922
     atom   22 type  2   force =    -0.00645874   -0.00662537   -0.00750922
     atom   23 type  2   force =    -0.00662537    0.00645874    0.00750922
     atom   24 type  2   force =     0.00662537   -0.00645874   -0.00750922
     atom   25 type  2   force =    -0.00645874    0.00662537   -0.00750922
     atom   26 type  2   force =     0.00645874   -0.00662537    0.00750922
     atom   27 type  2   force =     0.00662537    0.00645874   -0.00750922
     atom   28 type  2   force =    -0.00662537   -0.00645874    0.00750922
     atom   29 type  2   force =     0.00645874   -0.00662537   -0.00750922
     atom   30 type  2   force =    -0.00645874    0.00662537    0.00750922
     atom   31 type  2   force =    -0.00662537   -0.00645874   -0.00750922
     atom   32 type  2   force =     0.00662537    0.00645874    0.00750922
     atom   33 type  2   force =    -0.00563159   -0.00168719    0.00000000
     atom   34 type  2   force =     0.00563159    0.00168719    0.00000000
     atom   35 type  2   force =     0.00168719   -0.00563159   -0.00000000
     atom   36 type  2   force =    -0.00168719    0.00563159   -0.00000000
     atom   37 type  2   force =    -0.00563159    0.00168719   -0.00000000
     atom   38 type  2   force =     0.00563159   -0.00168719   -0.00000000
     atom   39 type  2   force =     0.00168719    0.00563159   -0.00000000
     atom   40 type  2   force =    -0.00168719   -0.00563159   -0.00000000
     atom   41 type  2   force =     0.00000000    0.00000000   -0.01482631
     atom   42 type  2   force =     0.00000000    0.00000000    0.01482631
     atom   43 type  2   force =     0.00000000    0.00000000    0.01482631
     atom   44 type  2   force =     0.00000000    0.00000000   -0.01482631

     Total force =     0.058711     Total SCF correction =     0.000028


     Computing stress (Cartesian axis) and pressure

          total   stress  (Ry/bohr**3)                   (kbar)     P=      106.69
   0.00063302   0.00000000   0.00000000           93.12        0.00        0.00
   0.00000000   0.00063302   0.00000000            0.00       93.12        0.00
   0.00000000   0.00000000   0.00090966            0.00        0.00      133.82

     Energy error            =      3.1E-01 Ry
     Gradient error          =      1.5E-02 Ry/Bohr
     Cell gradient error     =      1.3E+02 kbar

     number of scf cycles    =   2
     number of bfgs steps    =   1

     enthalpy           old  =    -758.7007148224 Ry
     enthalpy           new  =    -759.0139052680 Ry

     CASE: enthalpy          _new < enthalpy          _old

     new trust radius        =       0.4991212020 bohr
     new conv_thr            =       0.0000000015 Ry

     new unit-cell volume =   3737.51415 a.u.^3 (   553.84246 Ang^3 )
     density =      3.13246 g/cm^3

CELL_PARAMETERS (alat= 12.61135185)
   1.059562786   0.000000000   0.000000000
   0.000000000   1.059562786   0.000000000
   0.000000000   0.000000000   1.659757060

ATOMIC_POSITIONS (crystal)
Rb            0.1890213555        0.3109786445        0.2500000000
Rb            0.8109786445        0.6890213555        0.7500000000
Rb            0.6890213555        0.1890213555        0.2500000000
Rb            0.3109786445        0.8109786445        0.7500000000
Rb            0.8109786445        0.6890213555        0.2500000000
Rb            0.1890213555        0.3109786445        0.7500000000
Rb            0.3109786445        0.8109786445        0.2500000000
Rb            0.6890213555        0.1890213555        0.7500000000
Rb            0.0000000000        0.0000000000        0.5000000000
Rb            0.5000000000        0.5000000000        0.0000000000
Al            0.0000000000        0.5000000000       -0.0000000000
Al            0.5000000000        0.0000000000        0.0000000000
Al            0.5000000000        0.0000000000        0.5000000000
Al            0.0000000000        0.5000000000        0.5000000000
Al            0.0000000000        0.0000000000        0.0000000000
Al            0.5000000000        0.5000000000        0.5000000000
H             0.0832712524        0.6534943745        0.3912608413
H             0.9167287476        0.3465056255        0.6087391587
H             0.3465056255        0.0832712524        0.3912608413
H             0.6534943745        0.9167287476        0.6087391587
H             0.9167287476        0.3465056255        0.3912608413
H             0.0832712524        0.6534943745        0.6087391587
H             0.6534943745        0.9167287476        0.3912608413
H             0.3465056255        0.0832712524        0.6087391587
H             0.5832712524        0.8465056255        0.1087391587
H             0.4167287476        0.1534943745        0.8912608413
H             0.8465056255        0.4167287476        0.1087391587
H             0.1534943745        0.5832712524        0.8912608413
H             0.4167287476        0.1534943745        0.1087391587
H             0.5832712524        0.8465056255        0.8912608413
H             0.1534943745        0.5832712524        0.1087391587
H             0.8465056255        0.4167287476        0.8912608413
H             0.1042948006        0.2467025011        0.0000000000
H             0.8957051994        0.7532974989        0.0000000000
H             0.7532974989        0.1042948006       -0.0000000000
H             0.2467025011        0.8957051994       -0.0000000000
H             0.6042948006        0.2532974989        0.5000000000
H             0.3957051994        0.7467025011        0.5000000000
H             0.2532974989        0.3957051994        0.5000000000
H             0.7467025011        0.6042948006        0.5000000000
H             0.0000000000        0.0000000000        0.1627285454
H             0.0000000000        0.0000000000        0.8372714546
H             0.5000000000        0.5000000000        0.3372714546
H             0.5000000000        0.5000000000        0.6627285454



     Writing output data file ./Rb5Al3H14.save/
     NEW-OLD atomic charge density approx. for the potential
     extrapolated charge  149.20816, renormalised to  136.00000

     total cpu time spent up to now is      302.5 secs

     Self-consistent Calculation

     iteration #  1     ecut=    60.00 Ry     beta= 0.70
     Davidson diagonalization with overlap
     c_bands:  1 eigenvalues not converged
     c_bands:  2 eigenvalues not converged
     c_bands:  1 eigenvalues not converged
     c_bands:  1 eigenvalues not converged
     c_bands:  1 eigenvalues not converged
     c_bands:  1 eigenvalues not converged
     ethr =  1.00E-06,  avg # of iterations = 17.6

     total cpu time spent up to now is      332.5 secs

     total energy              =    -757.87078513 Ry
     estimated scf accuracy    <       0.75166854 Ry

     iteration #  2     ecut=    60.00 Ry     beta= 0.70
     Davidson diagonalization with overlap
     ethr =  5.53E-04,  avg # of iterations =  8.1

     total cpu time spent up to now is      347.9 secs

     total energy              =    -759.20932862 Ry
     estimated scf accuracy    <       1.61421682 Ry

     iteration #  3     ecut=    60.00 Ry     beta= 0.70
     Davidson diagonalization with overlap
     ethr =  5.53E-04,  avg # of iterations =  2.2

     total cpu time spent up to now is      357.6 secs

     total energy              =    -759.27178741 Ry
     estimated scf accuracy    <       0.29862663 Ry

     iteration #  4     ecut=    60.00 Ry     beta= 0.70
     Davidson diagonalization with overlap
     ethr =  2.20E-04,  avg # of iterations =  1.7

     total cpu time spent up to now is      366.0 secs

     total energy              =    -759.22796691 Ry
     estimated scf accuracy    <       0.16855176 Ry

     iteration #  5     ecut=    60.00 Ry     beta= 0.70
     Davidson diagonalization with overlap
     ethr =  1.24E-04,  avg # of iterations =  3.1

     total cpu time spent up to now is      375.0 secs

     total energy              =    -759.19118672 Ry
     estimated scf accuracy    <       0.06416010 Ry

     iteration #  6     ecut=    60.00 Ry     beta= 0.70
     Davidson diagonalization with overlap
     ethr =  4.72E-05,  avg # of iterations =  8.5

     total cpu time spent up to now is      389.8 secs

     total energy              =    -759.20829147 Ry
     estimated scf accuracy    <       0.00091876 Ry

     iteration #  7     ecut=    60.00 Ry     beta= 0.70
     Davidson diagonalization with overlap
     ethr =  6.76E-07,  avg # of iterations = 10.1

     total cpu time spent up to now is      405.7 secs

     total energy              =    -759.20866857 Ry
     estimated scf accuracy    <       0.00011051 Ry

     iteration #  8     ecut=    60.00 Ry     beta= 0.70
     Davidson diagonalization with overlap
     ethr =  8.13E-08,  avg # of iterations =  2.6

     total cpu time spent up to now is      416.6 secs

     total energy              =    -759.20869277 Ry
     estimated scf accuracy    <       0.00004493 Ry

     iteration #  9     ecut=    60.00 Ry     beta= 0.70
     Davidson diagonalization with overlap
     ethr =  3.30E-08,  avg # of iterations =  2.0

     total cpu time spent up to now is      426.1 secs

     total energy              =    -759.20869561 Ry
     estimated scf accuracy    <       0.00000426 Ry

     iteration # 10     ecut=    60.00 Ry     beta= 0.70
     Davidson diagonalization with overlap
     ethr =  3.13E-09,  avg # of iterations =  2.4

     total cpu time spent up to now is      435.8 secs

     total energy              =    -759.20869634 Ry
     estimated scf accuracy    <       0.00000013 Ry

     iteration # 11     ecut=    60.00 Ry     beta= 0.70
     Davidson diagonalization with overlap
     ethr =  9.84E-11,  avg # of iterations =  4.1

     total cpu time spent up to now is      448.1 secs

     total energy              =    -759.20869641 Ry
     estimated scf accuracy    <          4.5E-09 Ry

     iteration # 12     ecut=    60.00 Ry     beta= 0.70
     Davidson diagonalization with overlap
     ethr =  3.34E-12,  avg # of iterations =  2.1

     total cpu time spent up to now is      457.3 secs

     End of self-consistent calculation

          k = 0.0000 0.0000 0.0000 ( 24099 PWs)   bands (ev):

   -21.9922 -21.9854 -21.5696 -21.5629 -21.4571 -21.4571 -21.4563 -21.4563
   -21.4032 -21.4024  -6.7727  -6.5703  -6.5157  -6.4638  -6.4638  -6.3475
    -6.3357  -6.2272  -6.1678  -6.1678  -6.1449  -6.1449  -6.1103  -5.9765
    -5.9765  -5.6841  -5.6564  -5.6446  -5.6446  -5.5684  -5.5367  -5.5367
    -5.4839  -5.4633  -5.2978  -5.2906  -5.2532  -5.2532  -5.2516  -5.2516
    -2.8293  -1.9304  -1.2587  -0.8967  -0.0722   0.3362   0.5443   0.5443
     0.7772   0.8941   0.8941   1.6479   1.8585   2.0215   2.2209   2.2209
     2.5441   2.5790   2.5790   2.6722   3.1340   3.1404   3.2235   3.3088
     3.3088   3.9639   3.9639   4.0710   7.3403   7.9615   7.9740   8.0684
     8.7507   8.7507   8.7936   8.7936   9.1677   9.3733   9.3921   9.3978
     9.3978   9.4113

          k = 0.0000 0.0000 0.1205 ( 24099 PWs)   bands (ev):

   -21.9915 -21.9861 -21.5689 -21.5635 -21.4570 -21.4570 -21.4563 -21.4563
   -21.4031 -21.4025  -6.7530  -6.5653  -6.5212  -6.4791  -6.4476  -6.4476
    -6.2604  -6.2447  -6.2447  -6.1417  -6.1259  -6.0800  -6.0800  -5.9803
    -5.9803  -5.7254  -5.6479  -5.6347  -5.6347  -5.5766  -5.5469  -5.5469
    -5.4818  -5.4651  -5.2972  -5.2914  -5.2533  -5.2533  -5.2520  -5.2520
    -2.7518  -2.0313  -1.2281  -0.9364  -0.0423   0.2800   0.5776   0.5776
     0.8613   0.8613   0.9023   1.7220   1.8793   1.9364   2.2361   2.2361
     2.4323   2.5113   2.5113   2.5747   3.1638   3.2448   3.2824   3.4042
     3.4042   3.9192   3.9192   4.0070   7.4111   7.7372   7.9438   8.3729
     8.7959   8.7959   8.8222   8.8222   8.9376   9.1892   9.3332   9.3817
     9.4003   9.4003

          k = 0.0000 0.0000 0.2410 ( 24048 PWs)   bands (ev):

   -21.9899 -21.9878 -21.5673 -21.5652 -21.4568 -21.4568 -21.4565 -21.4565
   -21.4029 -21.4027  -6.6950  -6.6017  -6.5521  -6.5353  -6.4010  -6.4010
    -6.3300  -6.3300  -6.2159  -6.1664  -6.0263  -6.0263  -5.9947  -5.9947
    -5.9843  -5.8353  -5.6256  -5.6079  -5.6079  -5.5984  -5.5740  -5.5740
    -5.4763  -5.4700  -5.2956  -5.2934  -5.2533  -5.2533  -5.2527  -5.2527
    -2.5447  -2.2734  -1.1448  -1.0340   0.0417   0.1613   0.6654   0.6654
     0.7742   0.7742   1.2013   1.5604   1.9203   2.1315   2.1845   2.2894
     2.2894   2.3685   2.3880   2.3880   3.2157   3.2533   3.5612   3.6004
     3.6004   3.7903   3.7903   3.8252   7.5348   7.5994   8.0058   8.2991
     8.8684   8.8684   8.8827   8.8827   8.9183   9.1862   9.2452   9.3162
     9.4659   9.4663

          k = 0.0000 0.1888 0.0000 ( 24103 PWs)   bands (ev):

   -21.9914 -21.9859 -21.5596 -21.5538 -21.4687 -21.4685 -21.4513 -21.4505
   -21.4071 -21.4064  -6.7415  -6.5600  -6.4791  -6.4728  -6.4096  -6.4089
    -6.3302  -6.2472  -6.2062  -6.1407  -6.0949  -6.0599  -6.0308  -6.0182
    -5.8988  -5.6953  -5.6819  -5.6505  -5.6270  -5.5708  -5.5688  -5.5419
    -5.4907  -5.4822  -5.3859  -5.3673  -5.3138  -5.3031  -5.2618  -5.2610
    -2.6834  -1.8928  -1.2503  -1.0848  -0.2771  -0.0670   0.6113   0.8691
     0.9066   1.1922   1.2504   1.7151   1.8815   1.9374   2.1567   2.1789
     2.3480   2.3988   2.4062   2.5089   3.1703   3.2339   3.3383   3.3874
     3.5314   3.9390   3.9438   3.9803   7.3927   7.8547   8.0011   8.1990
     8.5256   8.5556   8.7547   8.8050   8.9131   9.2365   9.4444   9.5397
     9.6182   9.8235

          k = 0.0000 0.1888 0.1205 ( 24094 PWs)   bands (ev):

   -21.9909 -21.9865 -21.5590 -21.5544 -21.4687 -21.4685 -21.4512 -21.4506
   -21.4071 -21.4065  -6.7277  -6.5644  -6.4882  -6.4807  -6.4579  -6.3928
    -6.2667  -6.2392  -6.2302  -6.1633  -6.0957  -6.0436  -6.0223  -5.9942
    -5.9059  -5.7442  -5.6688  -5.6485  -5.6196  -5.5825  -5.5665  -5.5412
    -5.4892  -5.4834  -5.3828  -5.3685  -5.3125  -5.3040  -5.2619  -5.2612
    -2.6141  -1.9779  -1.2329  -1.0996  -0.2597  -0.0922   0.6335   0.8370
     1.0103   1.1796   1.2286   1.7871   1.8361   1.9233   2.1713   2.1912
     2.2399   2.3620   2.3788   2.5336   3.2366   3.2440   3.3348   3.4547
     3.5906   3.8811   3.8949   3.9443   7.4726   7.7702   7.9788   8.2427
     8.5013   8.6479   8.6898   8.8735   8.9821   9.2017   9.2806   9.4094
     9.5841   9.6840

          k = 0.0000 0.1888 0.2410 ( 24064 PWs)   bands (ev):

   -21.9895 -21.9878 -21.5576 -21.5558 -21.4686 -21.4686 -21.4510 -21.4508
   -21.4069 -21.4067  -6.6863  -6.6201  -6.5114  -6.4957  -6.4057  -6.3615
    -6.3246  -6.2993  -6.1558  -6.1200  -6.1156  -6.0611  -5.9587  -5.9587
    -5.9223  -5.8489  -5.6457  -5.6457  -5.6057  -5.6024  -5.5619  -5.5495
    -5.4878  -5.4858  -5.3767  -5.3717  -5.3095  -5.3064  -5.2619  -5.2617
    -2.4288  -2.1879  -1.1890  -1.1383  -0.2127  -0.1501   0.6919   0.7674
     1.1498   1.1830   1.2880   1.5856   1.9339   2.0312   2.0647   2.1837
     2.2505   2.2570   2.3659   2.4789   3.2536   3.2641   3.5094   3.6005
     3.7037   3.7262   3.7713   3.8424   7.6405   7.7009   7.9606   8.1312
     8.4987   8.5547   8.8537   8.9632   9.1443   9.1813   9.2063   9.3108
     9.5040   9.5625

          k = 0.0000 0.3775 0.0000 ( 24071 PWs)   bands (ev):

   -21.9894 -21.9874 -21.5329 -21.5293 -21.4984 -21.4970 -21.4365 -21.4358
   -21.4194 -21.4187  -6.6630  -6.5440  -6.5320  -6.5077  -6.3872  -6.3393
    -6.3048  -6.2182  -6.1987  -6.1264  -6.0863  -5.9483  -5.8912  -5.8060
    -5.7653  -5.7326  -5.7218  -5.7165  -5.7020  -5.7000  -5.5908  -5.5850
    -5.5801  -5.5576  -5.5106  -5.4991  -5.3341  -5.3278  -5.2897  -5.2882
    -2.3147  -1.9239  -1.4106  -1.3352  -0.3604  -0.2364   0.7288   0.8195
     1.2383   1.6229   1.6425   1.6652   1.9065   1.9617   2.0265   2.0812
     2.1073   2.1948   2.3611   2.5546   2.9905   3.0559   3.5708   3.5873
     3.7592   3.8077   3.8365   3.9739   7.4669   7.5419   7.8999   8.2911
     8.5237   8.5900   8.6212   8.8361   8.9951   9.2255   9.3391   9.3977
     9.5093   9.5411

          k = 0.0000 0.3775 0.1205 ( 24081 PWs)   bands (ev):

   -21.9892 -21.9876 -21.5326 -21.5296 -21.4982 -21.4971 -21.4364 -21.4359
   -21.4193 -21.4188  -6.6726  -6.6064  -6.4745  -6.4725  -6.3631  -6.3515
    -6.3008  -6.2378  -6.1934  -6.1281  -6.0715  -5.9565  -5.9159  -5.8352
    -5.7766  -5.7554  -5.7445  -5.7191  -5.6718  -5.6450  -5.6134  -5.6018
    -5.5551  -5.5425  -5.5110  -5.5017  -5.3336  -5.3286  -5.2897  -5.2885
    -2.2672  -1.9396  -1.4293  -1.3545  -0.3445  -0.2417   0.7269   0.7928
     1.2667   1.5102   1.6161   1.7520   1.8914   1.9898   2.0141   2.0879
     2.1208   2.2421   2.4063   2.5462   2.9980   3.0593   3.5478   3.5987
     3.7218   3.7796   3.8450   3.9529   7.5367   7.5907   7.9426   8.2629
     8.3416   8.3993   8.6749   8.8650   9.0638   9.2191   9.4787   9.5038
     9.5108   9.5975

          k = 0.0000 0.3775 0.2410 ( 24102 PWs)   bands (ev):

   -21.9887 -21.9881 -21.5317 -21.5306 -21.4978 -21.4974 -21.4363 -21.4361
   -21.4191 -21.4189  -6.6770  -6.6556  -6.4300  -6.4098  -6.3680  -6.3268
    -6.2976  -6.2912  -6.1654  -6.1376  -6.0330  -5.9817  -5.9450  -5.9204
    -5.7705  -5.7560  -5.7454  -5.7312  -5.6419  -5.6323  -5.6123  -5.6110
    -5.5346  -5.5302  -5.5107  -5.5073  -5.3324  -5.3305  -5.2895  -5.2890
    -2.1465  -2.0138  -1.4388  -1.4013  -0.3049  -0.2640   0.7269   0.7474
     1.3257   1.3978   1.6524   1.7306   1.8691   1.9018   2.1428   2.1482
     2.1551   2.2328   2.4936   2.5306   3.0199   3.0491   3.5431   3.6169
     3.6464   3.7095   3.8724   3.9116   7.7341   7.7474   7.9830   8.0240
     8.1194   8.1934   8.7809   8.8453   9.2689   9.3257   9.4344   9.5034
     9.5573   9.5578

          k = 0.1888 0.1888 0.0000 ( 24078 PWs)   bands (ev):

   -21.9907 -21.9863 -21.5500 -21.5451 -21.4680 -21.4671 -21.4570 -21.4567
   -21.4119 -21.4113  -6.7086  -6.5304  -6.4878  -6.4694  -6.3806  -6.3723
    -6.3708  -6.2417  -6.1674  -6.1154  -6.0618  -6.0342  -5.9937  -5.9895
    -5.9039  -5.7122  -5.6954  -5.6376  -5.6306  -5.6053  -5.5630  -5.5511
    -5.4939  -5.4673  -5.4262  -5.4251  -5.4184  -5.3967  -5.2722  -5.2699
    -2.5491  -1.8483  -1.2198  -1.1477  -0.5058  -0.4598   1.0233   1.0937
     1.1514   1.2853   1.3307   1.7725   1.8907   1.8960   2.0279   2.0427
     2.2103   2.2526   2.3969   2.4734   3.2254   3.2802   3.3329   3.5306
     3.5739   3.7993   3.9438   3.9678   7.4284   7.7481   7.9912   8.3246
     8.3548   8.4137   8.7646   8.8636   8.8836   9.1123   9.5716   9.6258
     9.7460   9.7774

          k = 0.1888 0.1888 0.1205 ( 24078 PWs)   bands (ev):

   -21.9903 -21.9867 -21.5496 -21.5456 -21.4679 -21.4672 -21.4570 -21.4567
   -21.4119 -21.4114  -6.6985  -6.5375  -6.5194  -6.4617  -6.4094  -6.3616
    -6.2947  -6.2325  -6.2259  -6.0883  -6.0867  -6.0091  -5.9981  -5.9773
    -5.9043  -5.7602  -5.6892  -5.6530  -5.6093  -5.5920  -5.5673  -5.5567
    -5.4861  -5.4681  -5.4273  -5.4262  -5.4160  -5.3983  -5.2722  -5.2703
    -2.4868  -1.9218  -1.2099  -1.1511  -0.5010  -0.4663   1.0696   1.1007
     1.1290   1.2921   1.3255   1.7982   1.8413   1.9055   2.0099   2.0652
     2.1834   2.2630   2.3795   2.4664   3.2568   3.3116   3.3267   3.5702
     3.6115   3.7638   3.9016   3.9218   7.5042   7.7461   8.0061   8.2035
     8.3680   8.4715   8.6579   8.8890   8.9695   9.1916   9.3764   9.5520
     9.5978   9.6297

          k = 0.1888 0.1888 0.2410 ( 24072 PWs)   bands (ev):

   -21.9892 -21.9878 -21.5483 -21.5468 -21.4677 -21.4674 -21.4569 -21.4568
   -21.4117 -21.4115  -6.6668  -6.6114  -6.4934  -6.4679  -6.3801  -6.3381
    -6.3050  -6.2959  -6.1521  -6.0956  -6.0844  -6.0409  -5.9604  -5.9601
    -5.8987  -5.8462  -5.6690  -5.6587  -5.5995  -5.5987  -5.5621  -5.5617
    -5.4755  -5.4705  -5.4287  -5.4281  -5.4099  -5.4030  -5.2719  -5.2712
    -2.3205  -2.1059  -1.1867  -1.1639  -0.4900  -0.4781   1.0416   1.0641
     1.2610   1.3127   1.3768   1.5983   1.9141   1.9168   1.9960   2.0553
     2.2194   2.3151   2.3167   2.4076   3.2814   3.2928   3.4780   3.6321
     3.6708   3.7158   3.7956   3.8156   7.6897   7.7744   7.9670   8.0136
     8.4311   8.4829   8.5927   8.7414   9.1888   9.2985   9.3536   9.4782
     9.5116   9.5188

          k = 0.1888 0.3775 0.0000 ( 24067 PWs)   bands (ev):

   -21.9891 -21.9874 -21.5245 -21.5216 -21.4919 -21.4912 -21.4443 -21.4443
   -21.4258 -21.4255  -6.6335  -6.5421  -6.4878  -6.4768  -6.4059  -6.3302
    -6.2774  -6.1632  -6.1508  -6.1426  -6.0150  -5.9401  -5.8886  -5.8472
    -5.7812  -5.7531  -5.7438  -5.7278  -5.7150  -5.6757  -5.6017  -5.5914
    -5.5750  -5.5708  -5.5474  -5.5434  -5.3830  -5.3806  -5.3234  -5.3206
    -2.2039  -1.8452  -1.3770  -1.2774  -0.6884  -0.6466   1.2073   1.2317
     1.3208   1.6199   1.6494   1.6756   1.8282   1.9334   1.9360   2.0282
     2.1222   2.1652   2.3035   2.6216   2.9510   3.1231   3.4601   3.6038
     3.6603   3.8042   3.8414   3.9457   7.4240   7.4870   7.9767   8.1980
     8.4584   8.5726   8.6444   8.8247   8.9819   9.1387   9.3292   9.4935
     9.5484   9.6730

          k = 0.1888 0.3775 0.1205 ( 24071 PWs)   bands (ev):

   -21.9889 -21.9876 -21.5242 -21.5219 -21.4918 -21.4912 -21.4444 -21.4442
   -21.4258 -21.4255  -6.6409  -6.5826  -6.4521  -6.4470  -6.3765  -6.3316
    -6.2829  -6.2059  -6.1642  -6.1196  -6.0151  -5.9448  -5.8954  -5.8401
    -5.8108  -5.7903  -5.7277  -5.7158  -5.6815  -5.6632  -5.6187  -5.5965
    -5.5718  -5.5587  -5.5515  -5.5449  -5.3831  -5.3809  -5.3234  -5.3209
    -2.1614  -1.8624  -1.3860  -1.2957  -0.6830  -0.6484   1.1834   1.2175
     1.3562   1.5494   1.6323   1.7333   1.7570   1.9702   2.0081   2.0476
     2.0819   2.2177   2.2959   2.6205   2.9550   3.1270   3.4601   3.5851
     3.6729   3.8002   3.8248   3.9177   7.4904   7.5421   8.0290   8.1830
     8.3553   8.4283   8.6007   8.7694   9.0761   9.1976   9.3222   9.5179
     9.5796   9.6872

          k = 0.1888 0.3775 0.2410 ( 24074 PWs)   bands (ev):

   -21.9885 -21.9880 -21.5235 -21.5226 -21.4917 -21.4913 -21.4444 -21.4441
   -21.4258 -21.4256  -6.6446  -6.6237  -6.4217  -6.3825  -6.3383  -6.3135
    -6.2935  -6.2785  -6.1839  -6.1125  -6.0095  -5.9634  -5.8941  -5.8729
    -5.8084  -5.8019  -5.7227  -5.7132  -5.6657  -5.6412  -5.6239  -5.5992
    -5.5637  -5.5584  -5.5530  -5.5507  -5.3834  -5.3810  -5.3233  -5.3215
[...]
    -7.9682  -7.9682  -7.8529  -7.8426  -7.7082  -7.7082  -7.6896  -7.6896
    -7.6317  -7.5565  -7.4709  -7.4709  -7.4618  -7.4576  -7.4342  -7.4342
    -7.3828  -7.3828  -7.3786  -7.3786  -7.3655  -7.3648  -7.3105  -7.3097
    -3.6592  -3.5391  -2.6663  -2.5972  -1.7478  -1.6668  -0.2742  -0.2742
    -0.2178  -0.2178  -0.1278   0.1109   0.4827   0.4946   0.5259   0.5259
     0.6162   0.6342   0.6342   0.6588   2.1910   2.2632   2.2632   2.3974
     2.4903   2.4903   2.5844   2.6012   5.6509   5.7134   6.4939   6.6865
     6.7977   6.8708   6.8997   6.9744   6.9744   7.0200   7.1852   7.1852
     7.7883   7.7885

          k = 0.0000 0.1754 0.0000 ( 36075 PWs)   bands (ev):

   -23.5633 -23.5513 -23.5058 -23.4927 -23.4668 -23.4661 -23.4582 -23.4580
   -23.4223 -23.4222  -8.2412  -8.0859  -8.0278  -8.0126  -7.9992  -7.9869
    -7.9696  -7.8813  -7.8352  -7.8103  -7.7627  -7.7361  -7.7019  -7.6785
    -7.6097  -7.5351  -7.5258  -7.4892  -7.4709  -7.4652  -7.4526  -7.4476
    -7.4083  -7.4060  -7.4005  -7.3978  -7.3792  -7.3660  -7.3305  -7.3287
    -3.6943  -3.3516  -2.7391  -2.5907  -1.9400  -1.7670  -0.3102  -0.3064
    -0.1641   0.0305   0.1343   0.3175   0.3485   0.3907   0.4139   0.4545
     0.6446   0.6571   0.7474   0.8118   1.9266   2.0460   2.1268   2.3393
     2.4558   2.5760   2.6588   2.7142   5.7409   6.0423   6.2461   6.3338
     6.7556   6.7653   6.8987   6.9045   7.2330   7.4570   7.5265   7.6418
     7.6789   7.8557

          k = 0.0000 0.1754 0.1136 ( 36034 PWs)   bands (ev):

   -23.5624 -23.5527 -23.5043 -23.4938 -23.4667 -23.4661 -23.4582 -23.4580
   -23.4223 -23.4222  -8.2313  -8.1102  -8.0206  -8.0164  -8.0014  -7.9791
    -7.9625  -7.8916  -7.8369  -7.8143  -7.7374  -7.7308  -7.7000  -7.6814
    -7.6318  -7.5192  -7.5139  -7.5078  -7.4740  -7.4640  -7.4483  -7.4469
    -7.4112  -7.4069  -7.4000  -7.3981  -7.3790  -7.3690  -7.3304  -7.3289
    -3.6639  -3.3871  -2.7254  -2.6054  -1.9256  -1.7864  -0.2927  -0.2505
    -0.1778   0.0332   0.1137   0.2853   0.3318   0.4131   0.4740   0.4755
     0.5610   0.6706   0.7081   0.7884   1.9765   2.1131   2.1794   2.3229
     2.4726   2.5246   2.6050   2.6857   5.7426   5.9305   6.3283   6.4561
     6.7446   6.7886   6.9689   6.9747   7.1933   7.3667   7.4647   7.5020
     7.6188   7.6649

          k = 0.0000 0.1754 0.2272 ( 36032 PWs)   bands (ev):

   -23.5597 -23.5560 -23.5007 -23.4967 -23.4665 -23.4663 -23.4581 -23.4580
   -23.4223 -23.4222  -8.2024  -8.1584  -8.0135  -8.0072  -8.0022  -7.9838
    -7.9431  -7.9163  -7.8336  -7.8240  -7.7165  -7.7043  -7.6949  -7.6882
    -7.6352  -7.5752  -7.4996  -7.4838  -7.4735  -7.4641  -7.4394  -7.4362
    -7.4211  -7.4187  -7.3992  -7.3986  -7.3777  -7.3744  -7.3299  -7.3293
    -3.5823  -3.4768  -2.6891  -2.6434  -1.8862  -1.8334  -0.2570  -0.2132
    -0.1004   0.0484   0.0587   0.1450   0.3755   0.4569   0.5011   0.5314
     0.5885   0.6039   0.6244   0.7131   2.1111   2.2537   2.2764   2.2906
     2.4074   2.4615   2.5259   2.6104   5.7536   5.8069   6.5395   6.5893
     6.7329   6.8774   6.9957   7.0964   7.1603   7.1630   7.2700   7.3734
     7.5948   7.6222

          k = 0.0000 0.3508 0.0000 ( 36068 PWs)   bands (ev):

   -23.5587 -23.5541 -23.4938 -23.4855 -23.4789 -23.4752 -23.4471 -23.4470
   -23.4334 -23.4333  -8.1660  -8.0750  -8.0660  -8.0449  -7.9118  -7.8762
    -7.8444  -7.8443  -7.7748  -7.7693  -7.7458  -7.7405  -7.7383  -7.6410
    -7.6345  -7.6091  -7.5677  -7.5358  -7.5180  -7.5169  -7.5062  -7.4994
    -7.4659  -7.4635  -7.4279  -7.4108  -7.3659  -7.3633  -7.3500  -7.3485
    -3.4627  -3.2941  -2.8034  -2.7978  -2.0194  -1.9510  -0.2428  -0.1909
    -0.0997   0.1610   0.2117   0.3356   0.3852   0.4892   0.4922   0.4962
     0.6014   0.6496   0.8749   0.9498   1.6888   1.6943   2.2390   2.3719
     2.4150   2.4736   2.4845   2.6291   5.8460   5.9480   6.5620   6.6983
     6.8601   6.9632   7.1594   7.1775   7.3315   7.4502   7.4621   7.4820
     7.7372   7.8322

          k = 0.0000 0.3508 0.1136 ( 36066 PWs)   bands (ev):

   -23.5583 -23.5546 -23.4931 -23.4866 -23.4782 -23.4754 -23.4471 -23.4470
   -23.4334 -23.4333  -8.1665  -8.1113  -8.0342  -8.0330  -7.9125  -7.8836
    -7.8500  -7.8220  -7.7880  -7.7632  -7.7598  -7.7351  -7.7103  -7.6429
    -7.6399  -7.6095  -7.5898  -7.5586  -7.5428  -7.5234  -7.4968  -7.4753
    -7.4702  -7.4415  -7.4237  -7.4103  -7.3658  -7.3637  -7.3498  -7.3486
    -3.4448  -3.3075  -2.8053  -2.8019  -2.0129  -1.9574  -0.2382  -0.1971
    -0.0891   0.1004   0.2168   0.3371   0.4002   0.4935   0.5095   0.5245
     0.5930   0.6379   0.8953   0.9488   1.6928   1.6964   2.2618   2.2895
     2.4178   2.4507   2.5146   2.6543   5.8688   5.9501   6.6083   6.6098
     6.7399   7.0052   7.1551   7.2685   7.3896   7.4188   7.4941   7.5348
     7.6380   7.7291

          k = 0.0000 0.3508 0.2272 ( 36051 PWs)   bands (ev):

   -23.5572 -23.5558 -23.4913 -23.4889 -23.4770 -23.4760 -23.4471 -23.4470
   -23.4334 -23.4333  -8.1616  -8.1435  -8.0152  -8.0120  -7.9111  -7.9002
    -7.8366  -7.8137  -7.7977  -7.7791  -7.7319  -7.7186  -7.6825  -7.6565
    -7.6503  -7.6388  -7.6040  -7.5872  -7.5508  -7.5375  -7.4894  -7.4798
    -7.4405  -7.4288  -7.4159  -7.4110  -7.3655  -7.3646  -7.3494  -7.3490
    -3.3992  -3.3461  -2.8087  -2.8082  -1.9957  -1.9744  -0.2263  -0.2111
    -0.0561   0.0079   0.2512   0.3035   0.4271   0.4660   0.5406   0.5683
     0.5936   0.6293   0.9269   0.9435   1.6994   1.7002   2.2548   2.3109
     2.3208   2.3928   2.6099   2.6591   5.9188   5.9493   6.4961   6.5148
     6.8528   7.0188   7.2188   7.3423   7.3703   7.4031   7.4327   7.4534
     7.6282   7.7108

          k = 0.1754 0.1754 0.0000 ( 36051 PWs)   bands (ev):

   -23.5616 -23.5519 -23.5012 -23.4900 -23.4629 -23.4627 -23.4625 -23.4610
   -23.4265 -23.4265  -8.2092  -8.0476  -8.0082  -7.9973  -7.9827  -7.9576
    -7.9471  -7.8900  -7.8072  -7.7947  -7.7825  -7.7237  -7.7039  -7.6509
    -7.6241  -7.5418  -7.5157  -7.5118  -7.4691  -7.4669  -7.4558  -7.4451
    -7.4437  -7.4393  -7.4358  -7.4126  -7.4063  -7.3811  -7.3702  -7.3694
    -3.6058  -3.3037  -2.7218  -2.6203  -2.0830  -1.9862  -0.2364  -0.0130
     0.0628   0.1043   0.1962   0.3212   0.3316   0.4080   0.4176   0.4508
     0.5293   0.5587   0.7126   0.7534   1.9599   2.1299   2.2200   2.2968
     2.3224   2.3557   2.6208   2.6882   5.7865   6.0091   6.3301   6.4556
     6.5651   7.0151   7.0409   7.1081   7.2128   7.3040   7.3796   7.6539
     7.8598   7.8745

          k = 0.1754 0.1754 0.1136 ( 36025 PWs)   bands (ev):

   -23.5608 -23.5530 -23.5000 -23.4910 -23.4629 -23.4627 -23.4623 -23.4611
   -23.4265 -23.4265  -8.2006  -8.0828  -8.0043  -7.9903  -7.9695  -7.9532
    -7.9391  -7.8994  -7.8106  -7.7982  -7.7666  -7.7198  -7.7029  -7.6668
    -7.6256  -7.5382  -7.5181  -7.5118  -7.4791  -7.4608  -7.4558  -7.4483
    -7.4442  -7.4313  -7.4248  -7.4137  -7.4066  -7.3911  -7.3692  -7.3690
    -3.5787  -3.3345  -2.7121  -2.6299  -2.0747  -1.9969  -0.1882  -0.0139
     0.0505   0.1183   0.1814   0.2662   0.3304   0.4065   0.4509   0.4804
     0.5279   0.5287   0.7137   0.7293   1.9845   2.2000   2.2384   2.2944
     2.3188   2.3425   2.5827   2.6451   5.8015   5.9735   6.4187   6.4476
     6.5551   6.9750   7.0283   7.2245   7.2459   7.3147   7.3733   7.5417
     7.6521   7.7611

          k = 0.1754 0.1754 0.2272 ( 36011 PWs)   bands (ev):

   -23.5586 -23.5556 -23.4971 -23.4936 -23.4628 -23.4628 -23.4619 -23.4614
   -23.4265 -23.4265  -8.1750  -8.1339  -7.9958  -7.9890  -7.9498  -7.9417
    -7.9324  -7.9230  -7.8125  -7.8064  -7.7298  -7.7087  -7.7052  -7.6917
    -7.6209  -7.5881  -7.5020  -7.4904  -7.4750  -7.4570  -7.4569  -7.4511
    -7.4438  -7.4265  -7.4197  -7.4156  -7.4074  -7.4055  -7.3689  -7.3686
    -3.5061  -3.4130  -2.6866  -2.6552  -2.0524  -2.0229  -0.0640  -0.0068
     0.0183   0.0887   0.1580   0.1967   0.3569   0.4135   0.4336   0.4681
     0.5474   0.6097   0.6514   0.6843   2.0821   2.2155   2.2688   2.2862
     2.3407   2.4175   2.4806   2.5373   5.8428   5.9040   6.4433   6.4754
     6.7069   6.9997   7.0533   7.0566   7.2975   7.3293   7.3757   7.4081
     7.6495   7.6889

          k = 0.1754 0.3508 0.0000 ( 36074 PWs)   bands (ev):

   -23.5577 -23.5541 -23.4894 -23.4823 -23.4746 -23.4716 -23.4515 -23.4510
   -23.4377 -23.4376  -8.1342  -8.0501  -8.0176  -8.0007  -7.8871  -7.8776
    -7.8476  -7.8306  -7.7967  -7.7400  -7.7388  -7.7333  -7.6997  -7.6510
    -7.6273  -7.6054  -7.5831  -7.5635  -7.5373  -7.5281  -7.5067  -7.4900
    -7.4863  -7.4658  -7.4325  -7.4223  -7.4191  -7.4039  -7.4013  -7.3912
    -3.3796  -3.2254  -2.7701  -2.7621  -2.2274  -2.1920  -0.0451   0.0725
     0.0928   0.1838   0.2279   0.2999   0.3714   0.4356   0.4476   0.4985
     0.5396   0.6246   0.8954   0.9615   1.6911   1.7070   2.2054   2.2836
     2.2849   2.4488   2.4739   2.6226   5.7825   5.8732   6.5879   6.7257
     6.8072   6.9151   7.1185   7.3046   7.4248   7.4711   7.5286   7.5898
     7.7259   7.7977

          k = 0.1754 0.3508 0.1136 ( 36045 PWs)   bands (ev):

   -23.5574 -23.5544 -23.4888 -23.4832 -23.4741 -23.4717 -23.4514 -23.4511
   -23.4377 -23.4376  -8.1339  -8.0792  -7.9897  -7.9888  -7.8887  -7.8759
    -7.8504  -7.8221  -7.7967  -7.7551  -7.7476  -7.7258  -7.6841  -7.6606
    -7.6290  -7.6108  -7.5916  -7.5784  -7.5392  -7.5273  -7.5041  -7.4847
    -7.4715  -7.4591  -7.4313  -7.4240  -7.4161  -7.4050  -7.4021  -7.3965
    -3.3635  -3.2381  -2.7719  -2.7646  -2.2242  -2.1955  -0.0445   0.0754
     0.0945   0.1418   0.2353   0.3130   0.3873   0.4106   0.4411   0.5380
     0.5488   0.6121   0.9032   0.9598   1.6942   1.7092   2.1793   2.2588
     2.3198   2.4613   2.4732   2.6079   5.8354   5.9176   6.5514   6.5860
     6.7264   6.9663   7.2016   7.3081   7.3591   7.5030   7.5494   7.5986
     7.6889   7.7916

          k = 0.1754 0.3508 0.2272 ( 36041 PWs)   bands (ev):

   -23.5565 -23.5554 -23.4872 -23.4851 -23.4731 -23.4723 -23.4513 -23.4512
   -23.4376 -23.4376  -8.1281  -8.1102  -7.9683  -7.9642  -7.8943  -7.8811
    -7.8427  -7.8100  -7.7954  -7.7704  -7.7499  -7.7308  -7.6735  -7.6698
    -7.6367  -7.6245  -7.5932  -7.5846  -7.5503  -7.5373  -7.4911  -7.4808
    -7.4552  -7.4351  -7.4293  -7.4257  -7.4156  -7.4151  -7.4044  -7.4023
    -3.3223  -3.2740  -2.7733  -2.7699  -2.2155  -2.2045  -0.0226   0.0275
     0.0979   0.1171   0.2647   0.3043   0.3782   0.4333   0.4480   0.5199
     0.5838   0.6094   0.9153   0.9566   1.6998   1.7124   2.1694   2.2056
     2.3746   2.4273   2.5217   2.5710   5.9785   6.0321   6.3072   6.3373
     6.9349   7.0539   7.1630   7.2525   7.3374   7.3901   7.5554   7.6119
     7.7485   7.8063

          k = 0.3508 0.3508 0.0000 ( 35993 PWs)   bands (ev):

   -23.5558 -23.5544 -23.4777 -23.4735 -23.4638 -23.4636 -23.4629 -23.4589
   -23.4491 -23.4481  -8.0694  -8.0294  -7.9342  -7.9199  -7.8764  -7.8084
    -7.8049  -7.7839  -7.7693  -7.7249  -7.7244  -7.6906  -7.6801  -7.6379
    -7.6339  -7.6205  -7.6170  -7.6029  -7.5710  -7.5654  -7.5380  -7.5331
    -7.5326  -7.5262  -7.5197  -7.5123  -7.4679  -7.4630  -7.3976  -7.3901
    -3.1585  -3.0579  -2.7602  -2.6924  -2.5780  -2.5457   0.0766   0.0896
     0.1143   0.2068   0.3298   0.3380   0.4329   0.4478   0.5230   0.5706
     0.7550   0.8157   0.9609   1.0474   1.5774   1.6352   1.8020   1.8458
     2.3573   2.4292   2.5483   2.6139   5.6807   5.7312   6.5511   6.6769
     7.0088   7.1119   7.2478   7.4890   7.5311   7.5611   7.5768   7.6077
     7.6281   7.7328

          k = 0.3508 0.3508 0.1136 ( 36037 PWs)   bands (ev):

   -23.5556 -23.5545 -23.4774 -23.4740 -23.4637 -23.4636 -23.4625 -23.4592
   -23.4490 -23.4482  -8.0686  -8.0393  -7.9186  -7.9054  -7.8720  -7.8156
    -7.8107  -7.7829  -7.7759  -7.7502  -7.7225  -7.6869  -7.6787  -7.6650
    -7.6293  -7.6209  -7.6002  -7.5983  -7.5689  -7.5678  -7.5372  -7.5326
    -7.5313  -7.5265  -7.5067  -7.4919  -7.4716  -7.4656  -7.4040  -7.4000
    -3.1481  -3.0666  -2.7537  -2.6989  -2.5758  -2.5499   0.0311   0.0844
     0.1562   0.2235   0.3307   0.3531   0.4132   0.4665   0.5265   0.5474
     0.7596   0.8082   0.9680   1.0378   1.5837   1.6302   1.8080   1.8436
     2.3605   2.4192   2.5531   2.6058   5.7536   5.7983   6.5644   6.7372
     6.7517   6.8815   7.3200   7.4139   7.4152   7.5533   7.5805   7.6249
     7.7858   7.8796

          k = 0.3508 0.3508 0.2272 ( 36029 PWs)   bands (ev):

   -23.5553 -23.5549 -23.4765 -23.4752 -23.4637 -23.4636 -23.4613 -23.4601
   -23.4487 -23.4484  -8.0646  -8.0547  -7.8919  -7.8686  -7.8617  -7.8333
    -7.8233  -7.8033  -7.7816  -7.7790  -7.7153  -7.7011  -7.6755  -7.6725
    -7.6299  -7.6264  -7.5908  -7.5857  -7.5707  -7.5665  -7.5336  -7.5323
    -7.5300  -7.5276  -7.4770  -7.4758  -7.4684  -7.4530  -7.4282  -7.4231
    -3.1216  -3.0904  -2.7368  -2.7159  -2.5694  -2.5596   0.0169   0.0395
     0.2145   0.2348   0.3443   0.3753   0.4042   0.4809   0.5019   0.5260
     0.7721   0.7904   0.9875   1.0142   1.5991   1.6167   1.8221   1.8358
     2.3731   2.3958   2.5669   2.5867   5.9444   5.9707   6.3694   6.3762
     6.8958   6.9604   7.1145   7.2059   7.4486   7.5352   7.6052   7.6239
     7.8271   7.9102

     the Fermi energy is     4.4859 ev

!    total energy              =    -759.40307742 Ry
     estimated scf accuracy    <          5.4E-11 Ry
     smearing contrib. (-TS)   =       0.00000000 Ry
     internal energy E=F+TS    =    -759.40307742 Ry

     The total energy is F=E-TS. E is the sum of the following terms:
     one-electron contribution =    -152.68282391 Ry
     hartree contribution      =     111.37016351 Ry
     xc contribution           =    -110.43496010 Ry
     ewald contribution        =    -399.68342580 Ry
     one-center paw contrib.   =    -207.97203112 Ry

     convergence has been achieved in  10 iterations

     Forces acting on atoms (cartesian axes, Ry/au):

     atom    1 type  3   force =     0.00016568   -0.00016568    0.00000000
     atom    2 type  3   force =    -0.00016568    0.00016568   -0.00000000
     atom    3 type  3   force =     0.00016568    0.00016568   -0.00000000
     atom    4 type  3   force =    -0.00016568   -0.00016568    0.00000000
     atom    5 type  3   force =    -0.00016568    0.00016568    0.00000000
     atom    6 type  3   force =     0.00016568   -0.00016568   -0.00000000
     atom    7 type  3   force =    -0.00016568   -0.00016568   -0.00000000
     atom    8 type  3   force =     0.00016568    0.00016568    0.00000000
     atom    9 type  3   force =     0.00000000    0.00000000   -0.00000000
     atom   10 type  3   force =     0.00000000    0.00000000    0.00000000
     atom   11 type  1   force =     0.00000000    0.00000000    0.00000000
     atom   12 type  1   force =     0.00000000    0.00000000    0.00000000
     atom   13 type  1   force =     0.00000000    0.00000000    0.00000000
     atom   14 type  1   force =     0.00000000    0.00000000    0.00000000
     atom   15 type  1   force =     0.00000000    0.00000000    0.00000000
     atom   16 type  1   force =     0.00000000    0.00000000    0.00000000
     atom   17 type  2   force =     0.00005028   -0.00002233    0.00001712
     atom   18 type  2   force =    -0.00005028    0.00002233   -0.00001712
     atom   19 type  2   force =     0.00002233    0.00005028    0.00001712
     atom   20 type  2   force =    -0.00002233   -0.00005028   -0.00001712
     atom   21 type  2   force =    -0.00005028    0.00002233    0.00001712
     atom   22 type  2   force =     0.00005028   -0.00002233   -0.00001712
     atom   23 type  2   force =    -0.00002233   -0.00005028    0.00001712
     atom   24 type  2   force =     0.00002233    0.00005028   -0.00001712
     atom   25 type  2   force =     0.00005028    0.00002233   -0.00001712
     atom   26 type  2   force =    -0.00005028   -0.00002233    0.00001712
     atom   27 type  2   force =     0.00002233   -0.00005028   -0.00001712
     atom   28 type  2   force =    -0.00002233    0.00005028    0.00001712
     atom   29 type  2   force =    -0.00005028   -0.00002233   -0.00001712
     atom   30 type  2   force =     0.00005028    0.00002233    0.00001712
     atom   31 type  2   force =    -0.00002233    0.00005028   -0.00001712
     atom   32 type  2   force =     0.00002233   -0.00005028    0.00001712
     atom   33 type  2   force =     0.00011823    0.00009752    0.00000000
     atom   34 type  2   force =    -0.00011823   -0.00009752   -0.00000000
     atom   35 type  2   force =    -0.00009752    0.00011823    0.00000000
     atom   36 type  2   force =     0.00009752   -0.00011823    0.00000000
     atom   37 type  2   force =     0.00011823   -0.00009752    0.00000000
     atom   38 type  2   force =    -0.00011823    0.00009752    0.00000000
     atom   39 type  2   force =    -0.00009752   -0.00011823    0.00000000
     atom   40 type  2   force =     0.00009752    0.00011823    0.00000000
     atom   41 type  2   force =     0.00000000    0.00000000    0.00040546
     atom   42 type  2   force =     0.00000000    0.00000000   -0.00040546
     atom   43 type  2   force =     0.00000000    0.00000000   -0.00040546
     atom   44 type  2   force =     0.00000000    0.00000000    0.00040546

     Total force =     0.001157     Total SCF correction =     0.000004


     Computing stress (Cartesian axis) and pressure

          total   stress  (Ry/bohr**3)                   (kbar)     P=        0.60
   0.00000251   0.00000000   0.00000000            0.37        0.00        0.00
   0.00000000   0.00000251   0.00000000            0.00        0.37        0.00
   0.00000000   0.00000000   0.00000731            0.00        0.00        1.08


     Writing output data file ./Rb5Al3H14.save/

     init_run     :     18.37s CPU     18.88s WALL (       2 calls)
     electrons    :   3555.15s CPU   3602.15s WALL (      32 calls)
     update_pot   :    135.96s CPU    136.69s WALL (      30 calls)
     forces       :    116.52s CPU    117.91s WALL (      32 calls)
     stress       :    502.32s CPU    507.03s WALL (      32 calls)

     Called by init_run:
     wfcinit      :      9.53s CPU      9.79s WALL (       2 calls)
     potinit      :      4.30s CPU      4.39s WALL (       2 calls)
     hinit0       :      4.03s CPU      4.10s WALL (       2 calls)

     Called by electrons:
     c_bands      :   2997.19s CPU   3024.28s WALL (     287 calls)
     sum_band     :    342.38s CPU    352.95s WALL (     287 calls)
     v_of_rho     :      8.17s CPU      8.24s WALL (     317 calls)
     newd         :     21.78s CPU     30.18s WALL (     317 calls)
     PAW_pot      :    226.35s CPU    227.10s WALL (     347 calls)
     mix_rho      :      1.59s CPU      1.62s WALL (     287 calls)

     Called by c_bands:
     init_us_2    :     39.90s CPU     40.32s WALL (   12060 calls)
     cegterg      :   2883.10s CPU   2907.19s WALL (    5177 calls)

     Called by *egterg:
     cdiaghg      :    194.45s CPU    196.32s WALL (   28700 calls)
     h_psi        :   1712.46s CPU   1730.59s WALL (   29323 calls)
     s_psi        :    253.69s CPU    254.74s WALL (   29323 calls)
     g_psi        :     11.86s CPU     11.95s WALL (   24110 calls)

     Called by h_psi:
     h_psi:calbec :    293.57s CPU    294.88s WALL (   29323 calls)
     vloc_psi     :   1151.53s CPU   1167.33s WALL (   29323 calls)
     add_vuspsi   :    259.53s CPU    260.56s WALL (   29323 calls)

     General routines
     calbec       :    524.75s CPU    527.04s WALL (   37909 calls)
     fft          :      9.05s CPU      9.12s WALL (    4319 calls)
     ffts         :      0.24s CPU      0.25s WALL (     287 calls)
     fftw         :   1227.64s CPU   1244.29s WALL ( 2929152 calls)

     Parallel routines

     PWSCF        :      1h12m CPU      1h13m WALL


   This run was terminated on:  17:18: 3  30Nov2023            

=------------------------------------------------------------------------------=
   JOB DONE.
=------------------------------------------------------------------------------=
