
     Program PWSCF v.6.8 starts on 23Nov2023 at 16:14:42 

     This program is part of the open-source Quantum ESPRESSO suite
     for quantum simulation of materials; please cite
         "P. Giannozzi et al., J. Phys.:Condens. Matter 21 395502 (2009);
         "P. Giannozzi et al., J. Phys.:Condens. Matter 29 465901 (2017);
         "P. Giannozzi et al., J. Chem. Phys. 152 154105 (2020);
          URL http://www.quantum-espresso.org", 
     in publications or presentations arising from this work. More details at
     http://www.quantum-espresso.org/quote

     Parallel version (MPI), running on    12 processors

     MPI processes distributed on     1 nodes
     R & G space division:  proc/nbgrp/npool/nimage =      12
     460498 MiB available memory on the printing compute node when the environment starts

     Reading input from input_cellopt.in

     Current dimensions of program PWSCF are:
     Max number of different atomic species (ntypx) = 10
     Max number of k-points (npk) =  40000
     Max angular momentum in pseudopotentials (lmaxx) =  4
     file Al.pbe-n-kjpaw_psl.1.0.0.UPF: wavefunction(s)  3S 3P renormalized

     IMPORTANT: XC functional enforced from input :
     Exchange-correlation= PBE
                           (   1   4   3   4   0   0   0)
     Any further DFT definition will be discarded
     Please, verify this is what you really want

     Message from routine setup:
     using ibrav=0 with symmetry is DISCOURAGED, use correct ibrav instead

     Subspace diagonalization in iterative solution of the eigenvalue problem:
     one sub-group per band group will be used
     scalapack distributed-memory algorithm (size of sub-group:  3*  3 procs)


     Parallelization info
     --------------------
     sticks:   dense  smooth     PW     G-vecs:    dense   smooth      PW
     Min         309     309     83                14493    14493    2047
     Max         310     310     84                14496    14496    2050
     Sum        3717    3717   1001               173927   173927   24581

     Using Slab Decomposition



     bravais-lattice index     =            0
     lattice parameter (alat)  =      17.6546  a.u.
     unit-cell volume          =    2770.2535 (a.u.)^3
     number of atoms/cell      =           24
     number of atomic types    =            3
     number of electrons       =        64.00
     number of Kohn-Sham states=           38
     kinetic-energy cutoff     =      60.0000  Ry
     charge density cutoff     =     240.0000  Ry
     scf convergence threshold =      1.0E-08
     mixing beta               =       0.7000
     number of iterations used =            8  plain     mixing
     energy convergence thresh.=      1.0E-04
     force convergence thresh. =      1.0E-03
     press convergence thresh. =      5.0E-01
     Exchange-correlation= PBE
                           (   1   4   3   4   0   0   0)
     nstep                     =           50


     celldm(1)=  17.654615  celldm(2)=   0.000000  celldm(3)=   0.000000
     celldm(4)=   0.000000  celldm(5)=   0.000000  celldm(6)=   0.000000

     crystal axes: (cart. coord. in units of alat)
               a(1) = (   1.000000   0.000000   0.000000 )  
               a(2) = (   0.000000   0.621972   0.000000 )  
               a(3) = (   0.000000   0.000000   0.809421 )  

     reciprocal axes: (cart. coord. in units 2 pi/alat)
               b(1) = (  1.000000  0.000000  0.000000 )  
               b(2) = (  0.000000  1.607791  0.000000 )  
               b(3) = (  0.000000  0.000000  1.235452 )  


     PseudoPot. # 1 for Rb read from file:
     ./Rb_ONCV_PBE-1.0.oncvpsp.upf
     MD5 check sum: 55a5172d6bfbce6759a58e35d43f6aa9
     Pseudo is Norm-conserving, Zval =  9.0
     Generated using ONCVPSP code by D. R. Hamann
     Using radial grid of 2308 points,  6 beta functions with: 
                l(1) =   0
                l(2) =   0
                l(3) =   1
                l(4) =   1
                l(5) =   2
                l(6) =   2

     PseudoPot. # 2 for H  read from file:
     ./H.pbe-rrkjus_psl.1.0.0.UPF
     MD5 check sum: f52b6d4d1c606e5624b1dc7b2218f220
     Pseudo is Ultrasoft, Zval =  1.0
     Generated using "atomic" code by A. Dal Corso  v.5.1
     Using radial grid of  929 points,  2 beta functions with: 
                l(1) =   0
                l(2) =   0
     Q(r) pseudized with 0 coefficients 


     PseudoPot. # 3 for Al read from file:
     ./Al.pbe-n-kjpaw_psl.1.0.0.UPF
     MD5 check sum: cfc449ca30b5f3223ec38ddd88ac046d
     Pseudo is Projector augmented-wave + core cor, Zval =  3.0
     Generated using "atomic" code by A. Dal Corso  v.5.1
     Shape of augmentation charge: PSQ
     Using radial grid of 1135 points,  6 beta functions with: 
                l(1) =   0
                l(2) =   0
                l(3) =   1
                l(4) =   1
                l(5) =   2
                l(6) =   2
     Q(r) pseudized with 0 coefficients 


     atomic species   valence    mass     pseudopotential
        Rb             9.00    85.46780     Rb( 1.00)
        H              1.00     1.00750     H ( 1.00)
        Al             3.00    26.98100     Al( 1.00)

      8 Sym. Ops., with inversion, found ( 6 have fractional translation)



   Cartesian axes

     site n.     atom                  positions (alat units)
         1           Rb  tau(   1) = (   0.1813250   0.1554929   0.5339807  )
         2           Rb  tau(   2) = (   0.3186750   0.4664787   0.1292704  )
         3           Rb  tau(   3) = (   0.8186750   0.4664787   0.2754398  )
         4           Rb  tau(   4) = (   0.6813250   0.1554929   0.6801501  )
         5           Al  tau(   5) = (   0.0618381   0.1554929   0.1506961  )
         6           Al  tau(   6) = (   0.4381619   0.4664787   0.5554064  )
         7           Al  tau(   7) = (   0.9381619   0.4664787   0.6587244  )
         8           Al  tau(   8) = (   0.5618381   0.1554929   0.2540141  )
         9           H   tau(   9) = (   0.0802315   0.0141086   0.2528744  )
        10           H   tau(  10) = (   0.4197685   0.3250944   0.6575847  )
        11           H   tau(  11) = (   0.4197685   0.6078630   0.6575847  )
        12           H   tau(  12) = (   0.9197685   0.3250944   0.5565461  )
        13           H   tau(  13) = (   0.9197685   0.6078630   0.5565461  )
        14           H   tau(  14) = (   0.5802315   0.2968772   0.1518359  )
        15           H   tau(  15) = (   0.5802315   0.0141086   0.1518359  )
        16           H   tau(  16) = (   0.0802315   0.2968772   0.2528744  )
        17           H   tau(  17) = (   0.0981417   0.4664787   0.7284224  )
        18           H   tau(  18) = (   0.4018583   0.1554929   0.3237121  )
        19           H   tau(  19) = (   0.9018583   0.1554929   0.0809982  )
        20           H   tau(  20) = (   0.5981417   0.4664787   0.4857084  )
        21           H   tau(  21) = (   0.1895212   0.1554929   0.0317295  )
        22           H   tau(  22) = (   0.3104788   0.4664787   0.4364398  )
        23           H   tau(  23) = (   0.8104788   0.4664787   0.7776910  )
        24           H   tau(  24) = (   0.6895212   0.1554929   0.3729807  )

     number of k points=    27  Marzari-Vanderbilt smearing, width (Ry)=  0.0050
                       cart. coord. in units 2pi/alat
        k(    1) = (   0.0000000   0.0000000   0.0000000), wk =   0.0160000
        k(    2) = (   0.0000000   0.0000000   0.2470903), wk =   0.0320000
        k(    3) = (   0.0000000   0.0000000   0.4941807), wk =   0.0320000
        k(    4) = (   0.0000000   0.3215581   0.0000000), wk =   0.0320000
        k(    5) = (   0.0000000   0.3215581   0.2470903), wk =   0.0640000
        k(    6) = (   0.0000000   0.3215581   0.4941807), wk =   0.0640000
        k(    7) = (   0.0000000   0.6431162   0.0000000), wk =   0.0320000
        k(    8) = (   0.0000000   0.6431162   0.2470903), wk =   0.0640000
        k(    9) = (   0.0000000   0.6431162   0.4941807), wk =   0.0640000
        k(   10) = (   0.2000000   0.0000000   0.0000000), wk =   0.0320000
        k(   11) = (   0.2000000   0.0000000   0.2470903), wk =   0.0640000
        k(   12) = (   0.2000000   0.0000000   0.4941807), wk =   0.0640000
        k(   13) = (   0.2000000   0.3215581   0.0000000), wk =   0.0640000
        k(   14) = (   0.2000000   0.3215581   0.2470903), wk =   0.1280000
        k(   15) = (   0.2000000   0.3215581   0.4941807), wk =   0.1280000
        k(   16) = (   0.2000000   0.6431162   0.0000000), wk =   0.0640000
        k(   17) = (   0.2000000   0.6431162   0.2470903), wk =   0.1280000
        k(   18) = (   0.2000000   0.6431162   0.4941807), wk =   0.1280000
        k(   19) = (   0.4000000   0.0000000   0.0000000), wk =   0.0320000
        k(   20) = (   0.4000000   0.0000000   0.2470903), wk =   0.0640000
        k(   21) = (   0.4000000   0.0000000   0.4941807), wk =   0.0640000
        k(   22) = (   0.4000000   0.3215581   0.0000000), wk =   0.0640000
        k(   23) = (   0.4000000   0.3215581   0.2470903), wk =   0.1280000
        k(   24) = (   0.4000000   0.3215581   0.4941807), wk =   0.1280000
        k(   25) = (   0.4000000   0.6431162   0.0000000), wk =   0.0640000
        k(   26) = (   0.4000000   0.6431162   0.2470903), wk =   0.1280000
        k(   27) = (   0.4000000   0.6431162   0.4941807), wk =   0.1280000

     Dense  grid:   173927 G-vectors     FFT dimensions: (  90,  60,  72)

     Estimated max dynamical RAM per process >     102.36 MB

     Estimated total dynamical RAM >       1.20 GB

     Initial potential from superposition of free atoms

     starting charge   63.89162, renormalised to   64.00000
     Starting wfcs are   52 randomized atomic wfcs
     Checking if some PAW data can be deallocated... 

     total cpu time spent up to now is        7.4 secs

     Self-consistent Calculation

     iteration #  1     ecut=    60.00 Ry     beta= 0.70
     Davidson diagonalization with overlap
     ethr =  1.00E-02,  avg # of iterations =  3.9

     total cpu time spent up to now is       13.7 secs

     total energy              =    -372.60955472 Ry
     estimated scf accuracy    <       1.30576667 Ry

     iteration #  2     ecut=    60.00 Ry     beta= 0.70
     Davidson diagonalization with overlap
     ethr =  2.04E-03,  avg # of iterations =  2.0

     total cpu time spent up to now is       18.9 secs

     total energy              =    -372.73169618 Ry
     estimated scf accuracy    <       0.01464968 Ry

     iteration #  3     ecut=    60.00 Ry     beta= 0.70
     Davidson diagonalization with overlap
     ethr =  2.29E-05,  avg # of iterations = 12.9

     total cpu time spent up to now is       28.4 secs

     total energy              =    -372.73804467 Ry
     estimated scf accuracy    <       0.00098844 Ry

     iteration #  4     ecut=    60.00 Ry     beta= 0.70
     Davidson diagonalization with overlap
     ethr =  1.54E-06,  avg # of iterations =  7.1

     total cpu time spent up to now is       35.2 secs

     total energy              =    -372.73831148 Ry
     estimated scf accuracy    <       0.00006472 Ry

     iteration #  5     ecut=    60.00 Ry     beta= 0.70
     Davidson diagonalization with overlap
     ethr =  1.01E-07,  avg # of iterations =  2.2

     total cpu time spent up to now is       40.7 secs

     total energy              =    -372.73833103 Ry
     estimated scf accuracy    <       0.00000579 Ry

     iteration #  6     ecut=    60.00 Ry     beta= 0.70
     Davidson diagonalization with overlap
     ethr =  9.04E-09,  avg # of iterations =  3.1

     total cpu time spent up to now is       46.3 secs

     total energy              =    -372.73833285 Ry
     estimated scf accuracy    <       0.00000004 Ry

     iteration #  7     ecut=    60.00 Ry     beta= 0.70
     Davidson diagonalization with overlap
     ethr =  6.76E-11,  avg # of iterations =  5.1

     total cpu time spent up to now is       54.5 secs

     End of self-consistent calculation

          k = 0.0000 0.0000 0.0000 ( 21731 PWs)   bands (ev):

   -24.9253 -24.9212 -24.9196 -24.9185  -9.1558  -9.1058  -9.1057  -9.1003
    -9.0920  -9.0531  -9.0306  -9.0291  -9.0138  -9.0002  -8.9936  -8.9887
    -5.0247  -4.3472  -4.1911  -3.9739  -1.7870  -1.4620  -1.1482  -1.1424
    -1.1240  -1.0859  -0.9554  -0.7870  -0.7765  -0.6871  -0.6364  -0.4882
     4.6391   4.7131   5.2497   5.2518   5.3080   5.5160

          k = 0.0000 0.0000 0.2471 ( 21745 PWs)   bands (ev):

   -24.9248 -24.9209 -24.9203 -24.9186  -9.1596  -9.1064  -9.1024  -9.0946
    -9.0850  -9.0499  -9.0415  -9.0273  -9.0148  -9.0072  -9.0007  -8.9891
    -4.9484  -4.3874  -4.1683  -3.9790  -1.7847  -1.4377  -1.3010  -1.1200
    -1.0690  -0.9695  -0.9403  -0.8202  -0.7774  -0.7657  -0.7158  -0.5197
     4.6535   4.7965   5.0153   5.3725   5.3899   5.5833

          k = 0.0000 0.0000 0.4942 ( 21818 PWs)   bands (ev):

   -24.9235 -24.9218 -24.9201 -24.9192  -9.1550  -9.1341  -9.0812  -9.0794
    -9.0597  -9.0522  -9.0479  -9.0417  -9.0325  -9.0216  -8.9974  -8.9913
    -4.7549  -4.5349  -4.0940  -4.0155  -1.7093  -1.5222  -1.3120  -1.0662
    -1.0432  -0.9507  -0.9500  -0.9067  -0.8487  -0.7842  -0.7337  -0.6174
     4.6085   4.7367   5.1964   5.5648   5.6525   5.7596

          k = 0.0000 0.3216 0.0000 ( 21755 PWs)   bands (ev):

   -24.9247 -24.9208 -24.9201 -24.9187  -9.1470  -9.1144  -9.0977  -9.0957
    -9.0880  -9.0549  -9.0541  -9.0372  -9.0135  -9.0043  -9.0009  -8.9898
    -4.8931  -4.3324  -4.1892  -4.0324  -1.7187  -1.3979  -1.3008  -1.2110
    -1.1225  -1.0571  -1.0209  -0.8931  -0.7856  -0.7147  -0.6096  -0.5648
     4.8196   4.8649   4.8682   5.3305   5.6754   5.6954

          k = 0.0000 0.3216 0.2471 ( 21760 PWs)   bands (ev):

   -24.9243 -24.9206 -24.9206 -24.9188  -9.1469  -9.1256  -9.1076  -9.0871
    -9.0744  -9.0731  -9.0438  -9.0388  -9.0128  -9.0038  -9.0017  -8.9905
    -4.8234  -4.3538  -4.1733  -4.0326  -1.7034  -1.5061  -1.2859  -1.1583
    -1.1480  -1.0830  -1.0103  -0.9570  -0.8316  -0.6689  -0.5892  -0.5880
     4.8608   4.9184   4.9460   5.4019   5.4997   5.7256

          k = 0.0000 0.3216 0.4942 ( 21757 PWs)   bands (ev):

   -24.9232 -24.9218 -24.9200 -24.9193  -9.1420  -9.1272  -9.1254  -9.1055
    -9.0747  -9.0551  -9.0436  -9.0244  -9.0203  -9.0104  -8.9978  -8.9931
    -4.6497  -4.4625  -4.1148  -4.0546  -1.6211  -1.5166  -1.4477  -1.3439
    -1.1153  -1.0444  -1.0045  -0.9432  -0.8255  -0.7112  -0.5955  -0.5743
     4.8517   4.9359   5.2159   5.5081   5.6815   5.7558

          k = 0.0000 0.6431 0.0000 ( 21737 PWs)   bands (ev):

   -24.9231 -24.9214 -24.9201 -24.9193  -9.1304  -9.1190  -9.1136  -9.0967
    -9.0722  -9.0615  -9.0521  -9.0481  -9.0317  -9.0232  -9.0007  -8.9939
    -4.5778  -4.2873  -4.2748  -4.1615  -1.5621  -1.4997  -1.3901  -1.3083
    -1.1967  -1.0402  -0.9221  -0.8975  -0.8562  -0.8407  -0.7365  -0.6420
     4.7832   5.0377   5.5394   5.5751   5.7518   5.8472

          k = 0.0000 0.6431 0.2471 ( 21727 PWs)   bands (ev):

   -24.9230 -24.9215 -24.9200 -24.9193  -9.1419  -9.1252  -9.1210  -9.1084
    -9.0830  -9.0588  -9.0506  -9.0304  -9.0269  -9.0095  -8.9992  -8.9946
    -4.5283  -4.2931  -4.2404  -4.1521  -1.6725  -1.5738  -1.4373  -1.3436
    -1.0994  -1.0782  -0.9769  -0.9006  -0.8724  -0.7977  -0.6920  -0.5797
     4.9498   5.1357   5.3553   5.4400   5.7158   5.7686

          k = 0.0000 0.6431 0.4942 ( 21680 PWs)   bands (ev):

   -24.9225 -24.9220 -24.9198 -24.9195  -9.1575  -9.1506  -9.1121  -9.1120
    -9.0960  -9.0812  -9.0267  -9.0213  -9.0089  -9.0018  -8.9965  -8.9953
    -4.4159  -4.3232  -4.1819  -4.1478  -1.8094  -1.7462  -1.3969  -1.3082
    -1.1739  -1.1616  -0.9959  -0.9547  -0.8214  -0.7351  -0.5978  -0.5420
     5.1786   5.2298   5.4200   5.4471   5.7364   5.8745

          k = 0.2000 0.0000 0.0000 ( 21777 PWs)   bands (ev):

   -24.9249 -24.9216 -24.9195 -24.9186  -9.1435  -9.1142  -9.1096  -9.0965
    -9.0729  -9.0591  -9.0298  -9.0278  -9.0223  -9.0041  -8.9960  -8.9945
    -4.9722  -4.4337  -4.1695  -3.9881  -1.7136  -1.4187  -1.2321  -1.1304
    -1.0896  -1.0348  -0.9745  -0.8228  -0.7776  -0.6967  -0.6412  -0.5189
     4.6387   4.7048   5.0182   5.3017   5.3801   5.4095

          k = 0.2000 0.0000 0.2471 ( 21738 PWs)   bands (ev):

   -24.9245 -24.9214 -24.9200 -24.9187  -9.1488  -9.1150  -9.0944  -9.0911
    -9.0783  -9.0565  -9.0380  -9.0277  -9.0188  -9.0177  -9.0042  -8.9892
    -4.8994  -4.4344  -4.1770  -3.9999  -1.7145  -1.4048  -1.2930  -1.1031
    -1.0828  -0.9644  -0.9573  -0.8466  -0.8112  -0.7296  -0.7262  -0.5580
     4.6394   4.8600   4.9943   5.1872   5.3794   5.5025

          k = 0.2000 0.0000 0.4942 ( 21747 PWs)   bands (ev):

   -24.9232 -24.9217 -24.9203 -24.9194  -9.1457  -9.1279  -9.0820  -9.0768
    -9.0597  -9.0563  -9.0500  -9.0428  -9.0341  -9.0292  -8.9986  -8.9920
    -4.7172  -4.5228  -4.1367  -4.0517  -1.6472  -1.4775  -1.2970  -1.0821
    -1.0291  -0.9636  -0.9463  -0.9024  -0.8557  -0.7961  -0.7579  -0.6599
     4.6579   4.7982   5.2488   5.4275   5.5206   5.5664

          k = 0.2000 0.3216 0.0000 ( 21736 PWs)   bands (ev):

   -24.9243 -24.9213 -24.9199 -24.9188  -9.1357  -9.1107  -9.1069  -9.0919
    -9.0784  -9.0617  -9.0538  -9.0332  -9.0181  -9.0115  -9.0021  -8.9950
    -4.8487  -4.4018  -4.1732  -4.0420  -1.6563  -1.3567  -1.2834  -1.1808
    -1.1760  -1.1160  -0.9923  -0.8700  -0.7895  -0.7041  -0.6801  -0.5768
     4.6444   4.8657   5.0840   5.2669   5.7016   5.7225

          k = 0.2000 0.3216 0.2471 ( 21747 PWs)   bands (ev):

   -24.9240 -24.9211 -24.9203 -24.9190  -9.1370  -9.1263  -9.1001  -9.0901
    -9.0736  -9.0703  -9.0478  -9.0400  -9.0137  -9.0096  -9.0052  -8.9935
    -4.7824  -4.3960  -4.1759  -4.0468  -1.6608  -1.4475  -1.2930  -1.1880
    -1.1470  -1.0848  -0.9755  -0.9584  -0.8385  -0.6729  -0.6653  -0.5842
     4.7308   4.9082   5.1056   5.2982   5.6067   5.7281

          k = 0.2000 0.3216 0.4942 ( 21750 PWs)   bands (ev):

   -24.9229 -24.9216 -24.9202 -24.9195  -9.1360  -9.1319  -9.1108  -9.1013
    -9.0783  -9.0599  -9.0435  -9.0293  -9.0195  -9.0146  -9.0010  -8.9944
    -4.6195  -4.4561  -4.1436  -4.0796  -1.6177  -1.4683  -1.4360  -1.2888
    -1.1320  -1.0435  -1.0112  -0.9540  -0.8266  -0.7199  -0.6346  -0.5992
     4.8695   4.9521   5.1982   5.4473   5.5699   5.7263

          k = 0.2000 0.6431 0.0000 ( 21733 PWs)   bands (ev):

   -24.9229 -24.9212 -24.9204 -24.9194  -9.1224  -9.1147  -9.1090  -9.0945
    -9.0714  -9.0660  -9.0606  -9.0399  -9.0353  -9.0239  -9.0077  -8.9989
    -4.5523  -4.3093  -4.2755  -4.1724  -1.5213  -1.4720  -1.3545  -1.3096
    -1.1813  -1.0360  -0.9627  -0.9090  -0.8564  -0.8377  -0.7771  -0.6836
     4.7522   5.0885   5.4118   5.5908   5.8402   6.0557

          k = 0.2000 0.6431 0.2471 ( 21723 PWs)   bands (ev):

   -24.9227 -24.9213 -24.9203 -24.9195  -9.1388  -9.1250  -9.1098  -9.1024
    -9.0893  -9.0648  -9.0447  -9.0332  -9.0253  -9.0112  -9.0060  -9.0002
    -4.5055  -4.3026  -4.2499  -4.1634  -1.6482  -1.5285  -1.4141  -1.3227
    -1.1681  -1.0520  -0.9865  -0.9187  -0.8509  -0.7933  -0.7338  -0.6170
     4.8722   5.0715   5.4512   5.5893   5.6628   5.8594

          k = 0.2000 0.6431 0.4942 ( 21723 PWs)   bands (ev):

   -24.9223 -24.9218 -24.9200 -24.9197  -9.1547  -9.1484  -9.1096  -9.1064
    -9.0971  -9.0811  -9.0239  -9.0178  -9.0137  -9.0049  -9.0022  -9.0010
    -4.4009  -4.3195  -4.1947  -4.1599  -1.7760  -1.7133  -1.3810  -1.3008
    -1.2558  -1.1577  -0.9659  -0.9331  -0.8163  -0.7367  -0.6381  -0.5796
     5.0875   5.1272   5.3643   5.6178   5.8595   5.9131

          k = 0.4000 0.0000 0.0000 ( 21792 PWs)   bands (ev):

   -24.9240 -24.9227 -24.9191 -24.9188  -9.1248  -9.1177  -9.1009  -9.0861
    -9.0722  -9.0580  -9.0436  -9.0281  -9.0270  -9.0158  -9.0014  -8.9973
    -4.8271  -4.6262  -4.1118  -4.0401  -1.5514  -1.3847  -1.2846  -1.1035
    -1.0832  -1.0237  -0.9739  -0.8917  -0.7528  -0.7219  -0.6412  -0.5933
     4.6155   4.7529   4.8907   5.1562   5.3868   5.4839

          k = 0.4000 0.0000 0.2471 ( 21776 PWs)   bands (ev):

   -24.9236 -24.9224 -24.9196 -24.9191  -9.1274  -9.1183  -9.0893  -9.0815
    -9.0687  -9.0637  -9.0457  -9.0335  -9.0301  -9.0297  -9.0000  -8.9942
    -4.7653  -4.5853  -4.1396  -4.0637  -1.5576  -1.4132  -1.2473  -1.1015
    -1.0583  -1.0025  -0.9760  -0.8983  -0.7859  -0.7532  -0.7066  -0.6448
     4.6705   4.7973   5.0383   5.2498   5.2688   5.2853

          k = 0.4000 0.0000 0.4942 ( 21729 PWs)   bands (ev):

   -24.9225 -24.9218 -24.9204 -24.9199  -9.1242  -9.1150  -9.0865  -9.0726
    -9.0702  -9.0628  -9.0499  -9.0423  -9.0421  -9.0382  -8.9982  -8.9952
    -4.6215  -4.5320  -4.1852  -4.1353  -1.5136  -1.4304  -1.2411  -1.1436
    -0.9932  -0.9580  -0.9560  -0.9155  -0.8542  -0.8258  -0.7887  -0.7489
     4.7770   4.8619   5.2886   5.3388   5.3832   5.5191

          k = 0.4000 0.3216 0.0000 ( 21753 PWs)   bands (ev):

   -24.9234 -24.9223 -24.9195 -24.9191  -9.1143  -9.1066  -9.0985  -9.0942
    -9.0788  -9.0627  -9.0549  -9.0425  -9.0253  -9.0102  -9.0083  -9.0050
    -4.7265  -4.5591  -4.1306  -4.0786  -1.5109  -1.3458  -1.2508  -1.2407
    -1.1640  -1.0735  -1.0200  -0.8839  -0.7860  -0.7723  -0.6797  -0.6319
     4.6239   4.7645   5.2351   5.2359   5.5117   5.5650

          k = 0.4000 0.3216 0.2471 ( 21760 PWs)   bands (ev):

   -24.9231 -24.9220 -24.9199 -24.9193  -9.1234  -9.1177  -9.0968  -9.0799
    -9.0770  -9.0678  -9.0542  -9.0502  -9.0229  -9.0146  -9.0051  -8.9997
    -4.6704  -4.5216  -4.1462  -4.0914  -1.5549  -1.4193  -1.2973  -1.1771
    -1.1275  -1.0693  -0.9932  -0.9379  -0.8434  -0.7915  -0.6562  -0.6269
     4.7159   4.8250   5.1990   5.2967   5.4679   5.5582

          k = 0.4000 0.3216 0.4942 ( 21742 PWs)   bands (ev):

   -24.9222 -24.9216 -24.9205 -24.9200  -9.1284  -9.1260  -9.0981  -9.0940
    -9.0751  -9.0622  -9.0546  -9.0442  -9.0211  -9.0196  -9.0011  -8.9979
    -4.5431  -4.4705  -4.1742  -4.1379  -1.5761  -1.5146  -1.2864  -1.2111
    -1.1240  -1.0475  -1.0419  -0.9967  -0.8235  -0.7765  -0.6673  -0.6482
     4.9480   4.9721   5.1392   5.2639   5.5381   5.6518

          k = 0.4000 0.6431 0.0000 ( 21760 PWs)   bands (ev):

   -24.9221 -24.9212 -24.9206 -24.9199  -9.1054  -9.1044  -9.0979  -9.0918
    -9.0785  -9.0764  -9.0607  -9.0485  -9.0283  -9.0231  -9.0185  -9.0123
    -4.4831  -4.3914  -4.2439  -4.2040  -1.4355  -1.4123  -1.3237  -1.3158
    -1.1299  -1.0381  -0.9914  -0.9132  -0.9023  -0.8646  -0.8212  -0.7688
     4.8261   5.0868   5.2315   5.4588   5.9915   6.0511

          k = 0.4000 0.6431 0.2471 ( 21743 PWs)   bands (ev):

   -24.9220 -24.9211 -24.9207 -24.9200  -9.1285  -9.1160  -9.1115  -9.1031
    -9.0767  -9.0617  -9.0488  -9.0431  -9.0207  -9.0171  -9.0127  -9.0121
    -4.4439  -4.3640  -4.2310  -4.1943  -1.5648  -1.4785  -1.3770  -1.3670
    -1.1320  -1.0413  -1.0083  -0.9448  -0.8590  -0.8358  -0.7496  -0.6917
     4.8990   5.0273   5.3399   5.3912   5.8992   6.0257

          k = 0.4000 0.6431 0.4942 ( 21714 PWs)   bands (ev):

   -24.9216 -24.9212 -24.9206 -24.9203  -9.1444  -9.1394  -9.1233  -9.1199
    -9.0692  -9.0612  -9.0370  -9.0313  -9.0135  -9.0111  -9.0072  -9.0046
    -4.3627  -4.3259  -4.2078  -4.1884  -1.6821  -1.6386  -1.4570  -1.4421
    -1.1294  -1.0808  -0.9807  -0.9641  -0.8018  -0.7688  -0.6800  -0.6474
     5.0707   5.1313   5.2292   5.3905   6.0331   6.0930

     the Fermi energy is     2.7259 ev

!    total energy              =    -372.73833296 Ry
     estimated scf accuracy    <          2.8E-09 Ry
     smearing contrib. (-TS)   =       0.00000000 Ry
     internal energy E=F+TS    =    -372.73833296 Ry

     The total energy is F=E-TS. E is the sum of the following terms:
     one-electron contribution =     -79.02170800 Ry
     hartree contribution      =      53.39135713 Ry
     xc contribution           =     -51.41878994 Ry
     ewald contribution        =    -156.89534184 Ry
     one-center paw contrib.   =    -138.79385032 Ry

     convergence has been achieved in   7 iterations

     Forces acting on atoms (cartesian axes, Ry/au):

     atom    1 type  1   force =    -0.00000252    0.00000000    0.00004040
     atom    2 type  1   force =     0.00000252   -0.00000000    0.00004040
     atom    3 type  1   force =     0.00000252   -0.00000000   -0.00004040
     atom    4 type  1   force =    -0.00000252    0.00000000   -0.00004040
     atom    5 type  3   force =     0.00012264    0.00000000    0.00012982
     atom    6 type  3   force =    -0.00012264   -0.00000000    0.00012982
     atom    7 type  3   force =    -0.00012264    0.00000000   -0.00012982
     atom    8 type  3   force =     0.00012264   -0.00000000   -0.00012982
     atom    9 type  2   force =     0.00001702    0.00005354   -0.00001558
     atom   10 type  2   force =    -0.00001702    0.00005354   -0.00001558
     atom   11 type  2   force =    -0.00001702   -0.00005354   -0.00001558
     atom   12 type  2   force =    -0.00001702    0.00005354    0.00001558
     atom   13 type  2   force =    -0.00001702   -0.00005354    0.00001558
     atom   14 type  2   force =     0.00001702   -0.00005354    0.00001558
     atom   15 type  2   force =     0.00001702    0.00005354    0.00001558
     atom   16 type  2   force =     0.00001702   -0.00005354   -0.00001558
     atom   17 type  2   force =    -0.00023767    0.00000000    0.00034567
     atom   18 type  2   force =     0.00023767    0.00000000    0.00034567
     atom   19 type  2   force =     0.00023767    0.00000000   -0.00034567
     atom   20 type  2   force =    -0.00023767    0.00000000   -0.00034567
     atom   21 type  2   force =     0.00013842    0.00000000   -0.00001218
     atom   22 type  2   force =    -0.00013842    0.00000000   -0.00001218
     atom   23 type  2   force =    -0.00013842   -0.00000000    0.00001218
     atom   24 type  2   force =     0.00013842    0.00000000    0.00001218

     Total force =     0.000971     Total SCF correction =     0.000016


     Computing stress (Cartesian axis) and pressure

          total   stress  (Ry/bohr**3)                   (kbar)     P=        5.02
   0.00003341   0.00000000   0.00000000            4.91        0.00        0.00
   0.00000000   0.00003452   0.00000000            0.00        5.08        0.00
   0.00000000   0.00000000   0.00003435            0.00        0.00        5.05


     BFGS Geometry Optimization
     Energy error            =      0.0E+00 Ry
     Gradient error          =      3.5E-04 Ry/Bohr
     Cell gradient error     =      5.1E+00 kbar

     number of scf cycles    =   1
     number of bfgs steps    =   0

     enthalpy           new  =    -372.7383329639 Ry

     new trust radius        =       0.0090847953 bohr
     new conv_thr            =       0.0000000100 Ry

     new unit-cell volume =   2777.34282 a.u.^3 (   411.55974 Ang^3 )
     density =      1.87985 g/cm^3

CELL_PARAMETERS (alat= 17.65461514)
   1.000835247   0.000000000   0.000000000
   0.000000000   0.622508350   0.000000000
   0.000000000   0.000000000   0.810115520

ATOMIC_POSITIONS (crystal)
Rb            0.1813248214        0.2500000000        0.6597101861
Rb            0.3186751786        0.7500000000        0.1597101861
Rb            0.8186751786        0.7500000000        0.3402898139
Rb            0.6813248214        0.2500000000        0.8402898139
Al            0.0618450765        0.2500000000        0.1861868848
Al            0.4381549235        0.7500000000        0.6861868848
Al            0.9381549235        0.7500000000        0.8138131152
Al            0.5618450765        0.2500000000        0.3138131152
H             0.0802324230        0.0226884928        0.3124130243
H             0.4197675770        0.5226884928        0.8124130243
H             0.4197675770        0.9773115072        0.8124130243
H             0.9197675770        0.5226884928        0.6875869757
H             0.9197675770        0.9773115072        0.6875869757
H             0.5802324230        0.4773115072        0.1875869757
H             0.5802324230        0.0226884928        0.1875869757
H             0.0802324230        0.4773115072        0.3124130243
H             0.0981282470        0.7500000000        0.8999548814
H             0.4018717530        0.2500000000        0.3999548814
H             0.9018717530        0.2500000000        0.1000451186
H             0.5981282470        0.7500000000        0.6000451186
H             0.1895290089        0.2500000000        0.0391994659
H             0.3104709911        0.7500000000        0.5391994659
H             0.8104709911        0.7500000000        0.9608005341
H             0.6895290089        0.2500000000        0.4608005341



     Writing output data file ./RbAlH4.save/
     NEW-OLD atomic charge density approx. for the potential
     extrapolated charge   64.16309, renormalised to   64.00000

     total cpu time spent up to now is       65.8 secs

     Self-consistent Calculation

     iteration #  1     ecut=    60.00 Ry     beta= 0.70
     Davidson diagonalization with overlap
     ethr =  1.00E-06,  avg # of iterations =  2.0

     total cpu time spent up to now is       71.2 secs

     total energy              =    -372.73824636 Ry
     estimated scf accuracy    <       0.00016096 Ry

     iteration #  2     ecut=    60.00 Ry     beta= 0.70
     Davidson diagonalization with overlap
     ethr =  2.51E-07,  avg # of iterations =  2.0

     total cpu time spent up to now is       77.2 secs

     total energy              =    -372.73856848 Ry
     estimated scf accuracy    <       0.00021334 Ry

     iteration #  3     ecut=    60.00 Ry     beta= 0.70
     Davidson diagonalization with overlap
     ethr =  2.51E-07,  avg # of iterations =  2.0

     total cpu time spent up to now is       82.5 secs

     total energy              =    -372.73856195 Ry
     estimated scf accuracy    <       0.00004747 Ry

     iteration #  4     ecut=    60.00 Ry     beta= 0.70
     Davidson diagonalization with overlap
     ethr =  7.42E-08,  avg # of iterations =  1.0

     total cpu time spent up to now is       86.9 secs

     total energy              =    -372.73855528 Ry
     estimated scf accuracy    <       0.00001345 Ry

     iteration #  5     ecut=    60.00 Ry     beta= 0.70
     Davidson diagonalization with overlap
     ethr =  2.10E-08,  avg # of iterations =  2.0

     total cpu time spent up to now is       92.3 secs

     total energy              =    -372.73855786 Ry
     estimated scf accuracy    <       0.00000001 Ry

     iteration #  6     ecut=    60.00 Ry     beta= 0.70
     Davidson diagonalization with overlap
     ethr =  1.60E-11,  avg # of iterations =  4.6

     total cpu time spent up to now is      100.3 secs

     End of self-consistent calculation

          k = 0.0000 0.0000 0.0000 ( 21731 PWs)   bands (ev):

   -24.9428 -24.9387 -24.9372 -24.9361  -9.1713  -9.1220  -9.1218  -9.1167
    -9.1083  -9.0700  -9.0477  -9.0463  -9.0309  -9.0174  -9.0109  -9.0060
    -5.0302  -4.3563  -4.1999  -3.9837  -1.7950  -1.4728  -1.1586  -1.1519
    -1.1343  -1.0972  -0.9678  -0.7987  -0.7876  -0.6996  -0.6488  -0.5003
     4.6273   4.7003   5.2334   5.2364   5.2853   5.5019

          k = 0.0000 0.0000 0.2469 ( 21745 PWs)   bands (ev):

   -24.9423 -24.9384 -24.9378 -24.9362  -9.1751  -9.1225  -9.1185  -9.1111
    -9.1014  -9.0668  -9.0584  -9.0444  -9.0319  -9.0244  -9.0179  -9.0064
    -4.9543  -4.3961  -4.1775  -3.9890  -1.7927  -1.4483  -1.3109  -1.1305
    -1.0795  -0.9802  -0.9526  -0.8318  -0.7886  -0.7776  -0.7282  -0.5316
     4.6411   4.7842   5.0007   5.3551   5.3676   5.5689

          k = 0.0000 0.0000 0.4938 ( 21818 PWs)   bands (ev):

   -24.9410 -24.9393 -24.9376 -24.9368  -9.1705  -9.1499  -9.0976  -9.0960
    -9.0765  -9.0689  -9.0646  -9.0587  -9.0496  -9.0386  -9.0146  -9.0086
    -4.7618  -4.5429  -4.1038  -4.0256  -1.7177  -1.5315  -1.3223  -1.0770
    -1.0541  -0.9618  -0.9615  -0.9176  -0.8607  -0.7965  -0.7448  -0.6289
     4.5958   4.7230   5.1830   5.5503   5.6350   5.7388

          k = 0.0000 0.3213 0.0000 ( 21755 PWs)   bands (ev):

   -24.9422 -24.9384 -24.9376 -24.9363  -9.1627  -9.1305  -9.1140  -9.1120
    -9.1044  -9.0718  -9.0709  -9.0542  -9.0306  -9.0215  -9.0181  -9.0071
    -4.8993  -4.3413  -4.1982  -4.0417  -1.7272  -1.4086  -1.3116  -1.2209
    -1.1334  -1.0677  -1.0319  -0.9050  -0.7974  -0.7268  -0.6218  -0.5766
     4.8069   4.8512   4.8550   5.3135   5.6576   5.6729

          k = 0.0000 0.3213 0.2469 ( 21760 PWs)   bands (ev):

   -24.9418 -24.9381 -24.9381 -24.9364  -9.1625  -9.1416  -9.1237  -9.1035
    -9.0910  -9.0897  -9.0607  -9.0557  -9.0299  -9.0210  -9.0189  -9.0078
    -4.8300  -4.3626  -4.1825  -4.0421  -1.7119  -1.5163  -1.2960  -1.1691
    -1.1591  -1.0941  -1.0211  -0.9680  -0.8432  -0.6812  -0.6008  -0.6001
     4.8476   4.9054   4.9324   5.3842   5.4840   5.7039

          k = 0.0000 0.3213 0.4938 ( 21757 PWs)   bands (ev):

   -24.9407 -24.9393 -24.9375 -24.9369  -9.1577  -9.1431  -9.1414  -9.1217
    -9.0912  -9.0719  -9.0605  -9.0414  -9.0374  -9.0276  -9.0150  -9.0103
    -4.6572  -4.4709  -4.1244  -4.0643  -1.6299  -1.5265  -1.4573  -1.3543
    -1.1264  -1.0557  -1.0153  -0.9540  -0.8368  -0.7229  -0.6075  -0.5864
     4.8390   4.9226   5.2007   5.4913   5.6654   5.7384

          k = 0.0000 0.6426 0.0000 ( 21737 PWs)   bands (ev):

   -24.9406 -24.9389 -24.9376 -24.9368  -9.1463  -9.1350  -9.1297  -9.1129
    -9.0887  -9.0782  -9.0689  -9.0650  -9.0487  -9.0403  -9.0179  -9.0111
    -4.5856  -4.2963  -4.2833  -4.1701  -1.5716  -1.5098  -1.3999  -1.3189
    -1.2080  -1.0517  -0.9331  -0.9091  -0.8676  -0.8525  -0.7476  -0.6540
     4.7704   5.0239   5.5235   5.5573   5.7337   5.8290

          k = 0.0000 0.6426 0.2469 ( 21727 PWs)   bands (ev):

   -24.9405 -24.9391 -24.9375 -24.9369  -9.1577  -9.1412  -9.1370  -9.1246
    -9.0995  -9.0756  -9.0674  -9.0474  -9.0439  -9.0267  -9.0164  -9.0118
    -4.5364  -4.3022  -4.2491  -4.1609  -1.6818  -1.5831  -1.4476  -1.3539
    -1.1108  -1.0897  -0.9878  -0.9120  -0.8838  -0.8094  -0.7034  -0.5917
     4.9366   5.1214   5.3403   5.4226   5.7003   5.7500

          k = 0.0000 0.6426 0.4938 ( 21680 PWs)   bands (ev):

   -24.9401 -24.9395 -24.9373 -24.9371  -9.1731  -9.1662  -9.1282  -9.1281
    -9.1124  -9.0976  -9.0437  -9.0384  -9.0261  -9.0191  -9.0138  -9.0126
    -4.4247  -4.3324  -4.1908  -4.1568  -1.8182  -1.7551  -1.4068  -1.3184
    -1.1854  -1.1730  -1.0067  -0.9655  -0.8328  -0.7468  -0.6095  -0.5540
     5.1644   5.2152   5.4051   5.4313   5.7188   5.8562

          k = 0.1998 0.0000 0.0000 ( 21777 PWs)   bands (ev):

   -24.9424 -24.9392 -24.9370 -24.9361  -9.1592  -9.1302  -9.1257  -9.1129
    -9.0894  -9.0760  -9.0469  -9.0449  -9.0392  -9.0213  -9.0132  -9.0118
    -4.9780  -4.4424  -4.1784  -3.9978  -1.7220  -1.4295  -1.2426  -1.1410
    -1.0993  -1.0456  -0.9866  -0.8340  -0.7894  -0.7092  -0.6536  -0.5309
     4.6257   4.6928   5.0029   5.2814   5.3631   5.3956

          k = 0.1998 0.0000 0.2469 ( 21738 PWs)   bands (ev):

   -24.9420 -24.9389 -24.9376 -24.9363  -9.1644  -9.1310  -9.1106  -9.1076
    -9.0947  -9.0733  -9.0551  -9.0448  -9.0358  -9.0348  -9.0214  -9.0066
    -4.9056  -4.4430  -4.1860  -4.0097  -1.7229  -1.4153  -1.3032  -1.1138
    -1.0931  -0.9750  -0.9694  -0.8578  -0.8228  -0.7415  -0.7385  -0.5699
     4.6267   4.8476   4.9795   5.1690   5.3605   5.4882

          k = 0.1998 0.0000 0.4938 ( 21747 PWs)   bands (ev):

   -24.9407 -24.9392 -24.9378 -24.9370  -9.1614  -9.1438  -9.0983  -9.0935
    -9.0765  -9.0729  -9.0667  -9.0598  -9.0512  -9.0461  -9.0159  -9.0093
    -4.7244  -4.5310  -4.1462  -4.0616  -1.6559  -1.4870  -1.3074  -1.0927
    -1.0401  -0.9746  -0.9580  -0.9134  -0.8675  -0.8083  -0.7691  -0.6712
     4.6450   4.7844   5.2353   5.4081   5.5028   5.5518

          k = 0.1998 0.3213 0.0000 ( 21736 PWs)   bands (ev):

   -24.9418 -24.9388 -24.9375 -24.9364  -9.1515  -9.1269  -9.1231  -9.1082
    -9.0948  -9.0784  -9.0706  -9.0503  -9.0351  -9.0287  -9.0193  -9.0123
    -4.8551  -4.4104  -4.1822  -4.0514  -1.6651  -1.3675  -1.2943  -1.1913
    -1.1863  -1.1267  -1.0032  -0.8819  -0.8013  -0.7162  -0.6917  -0.5888
     4.6315   4.8523   5.0699   5.2509   5.6812   5.7064

          k = 0.1998 0.3213 0.2469 ( 21747 PWs)   bands (ev):

   -24.9415 -24.9386 -24.9379 -24.9365  -9.1527  -9.1422  -9.1163  -9.1065
    -9.0901  -9.0869  -9.0647  -9.0569  -9.0308  -9.0268  -9.0224  -9.0108
    -4.7892  -4.4047  -4.1851  -4.0563  -1.6695  -1.4577  -1.3033  -1.1985
    -1.1581  -1.0958  -0.9865  -0.9696  -0.8500  -0.6846  -0.6774  -0.5963
     4.7178   4.8943   5.0923   5.2808   5.5909   5.7094

          k = 0.1998 0.3213 0.4938 ( 21750 PWs)   bands (ev):

   -24.9404 -24.9392 -24.9378 -24.9371  -9.1518  -9.1477  -9.1269  -9.1174
    -9.0948  -9.0767  -9.0604  -9.0464  -9.0366  -9.0317  -9.0182  -9.0117
    -4.6271  -4.4645  -4.1530  -4.0892  -1.6267  -1.4779  -1.4459  -1.2992
    -1.1431  -1.0549  -1.0221  -0.9649  -0.8378  -0.7314  -0.6467  -0.6113
     4.8567   4.9385   5.1832   5.4304   5.5520   5.7092

          k = 0.1998 0.6426 0.0000 ( 21733 PWs)   bands (ev):

   -24.9404 -24.9387 -24.9379 -24.9370  -9.1384  -9.1307  -9.1252  -9.1108
    -9.0880  -9.0826  -9.0773  -9.0568  -9.0522  -9.0409  -9.0249  -9.0161
    -4.5602  -4.3177  -4.2845  -4.1811  -1.5310  -1.4821  -1.3646  -1.3202
    -1.1927  -1.0473  -0.9738  -0.9206  -0.8677  -0.8495  -0.7881  -0.6955
     4.7391   5.0745   5.3965   5.5735   5.8220   6.0372

          k = 0.1998 0.6426 0.2469 ( 21723 PWs)   bands (ev):

   -24.9402 -24.9389 -24.9378 -24.9371  -9.1547  -9.1410  -9.1259  -9.1186
    -9.1056  -9.0814  -9.0615  -9.0501  -9.0423  -9.0284  -9.0231  -9.0174
    -4.5136  -4.3113  -4.2588  -4.1722  -1.6576  -1.5380  -1.4244  -1.3332
    -1.1790  -1.0633  -0.9975  -0.9299  -0.8623  -0.8050  -0.7451  -0.6291
     4.8587   5.0570   5.4367   5.5730   5.6452   5.8413

          k = 0.1998 0.6426 0.4938 ( 21723 PWs)   bands (ev):

   -24.9398 -24.9393 -24.9376 -24.9373  -9.1704  -9.1641  -9.1258  -9.1226
    -9.1133  -9.0975  -9.0410  -9.0349  -9.0308  -9.0221  -9.0194  -9.0182
    -4.4096  -4.3285  -4.2037  -4.1690  -1.7849  -1.7224  -1.3911  -1.3115
    -1.2663  -1.1686  -0.9768  -0.9440  -0.8278  -0.7484  -0.6499  -0.5916
     5.0733   5.1125   5.3495   5.6021   5.8414   5.8961

          k = 0.3997 0.0000 0.0000 ( 21792 PWs)   bands (ev):

   -24.9415 -24.9402 -24.9367 -24.9363  -9.1408  -9.1337  -9.1170  -9.1027
    -9.0889  -9.0745  -9.0604  -9.0452  -9.0441  -9.0329  -9.0186  -9.0146
    -4.8337  -4.6338  -4.1209  -4.0495  -1.5609  -1.3949  -1.2951  -1.1142
    -1.0942  -1.0353  -0.9842  -0.9026  -0.7648  -0.7341  -0.6535  -0.6053
     4.6021   4.7388   4.8782   5.1429   5.3685   5.4668

          k = 0.3997 0.0000 0.2469 ( 21776 PWs)   bands (ev):

   -24.9411 -24.9399 -24.9371 -24.9366  -9.1433  -9.1343  -9.1056  -9.0981
    -9.0854  -9.0803  -9.0624  -9.0505  -9.0471  -9.0468  -9.0173  -9.0115
    -4.7722  -4.5931  -4.1487  -4.0732  -1.5669  -1.4232  -1.2579  -1.1121
    -1.0695  -1.0142  -0.9865  -0.9092  -0.7977  -0.7653  -0.7184  -0.6565
     4.6571   4.7828   5.0254   5.2322   5.2513   5.2716

          k = 0.3997 0.0000 0.4938 ( 21729 PWs)   bands (ev):

   -24.9400 -24.9393 -24.9379 -24.9374  -9.1401  -9.1309  -9.1028  -9.0891
    -9.0868  -9.0796  -9.0666  -9.0593  -9.0589  -9.0552  -9.0154  -9.0124
    -4.6292  -4.5402  -4.1943  -4.1447  -1.5229  -1.4402  -1.2514  -1.1540
    -1.0046  -0.9690  -0.9678  -0.9266  -0.8658  -0.8377  -0.7997  -0.7599
     4.7633   4.8477   5.2704   5.3209   5.3692   5.5046

          k = 0.3997 0.3213 0.0000 ( 21753 PWs)   bands (ev):

   -24.9410 -24.9398 -24.9371 -24.9366  -9.1304  -9.1228  -9.1146  -9.1106
    -9.0953  -9.0792  -9.0716  -9.0594  -9.0424  -9.0273  -9.0254  -9.0221
    -4.7335  -4.5669  -4.1398  -4.0879  -1.5204  -1.3558  -1.2619  -1.2519
    -1.1746  -1.0841  -1.0305  -0.8953  -0.7976  -0.7838  -0.6919  -0.6441
     4.6109   4.7511   5.2203   5.2211   5.4953   5.5480

          k = 0.3997 0.3213 0.2469 ( 21760 PWs)   bands (ev):

   -24.9406 -24.9395 -24.9374 -24.9369  -9.1393  -9.1337  -9.1130  -9.0964
    -9.0935  -9.0844  -9.0710  -9.0669  -9.0400  -9.0317  -9.0223  -9.0170
    -4.6777  -4.5296  -4.1554  -4.1008  -1.5642  -1.4292  -1.3078  -1.1881
    -1.1383  -1.0802  -1.0042  -0.9493  -0.8547  -0.8025  -0.6684  -0.6391
     4.7025   4.8112   5.1842   5.2819   5.4516   5.5409

          k = 0.3997 0.3213 0.4938 ( 21742 PWs)   bands (ev):

   -24.9398 -24.9391 -24.9380 -24.9376  -9.1443  -9.1419  -9.1143  -9.1102
    -9.0917  -9.0788  -9.0713  -9.0611  -9.0382  -9.0367  -9.0183  -9.0152
    -4.5512  -4.4788  -4.1834  -4.1473  -1.5853  -1.5241  -1.2967  -1.2217
    -1.1349  -1.0585  -1.0532  -1.0077  -0.8345  -0.7876  -0.6794  -0.6603
     4.9345   4.9579   5.1244   5.2491   5.5193   5.6325

          k = 0.3997 0.6426 0.0000 ( 21760 PWs)   bands (ev):

   -24.9396 -24.9387 -24.9382 -24.9375  -9.1216  -9.1207  -9.1142  -9.1081
    -9.0950  -9.0928  -9.0773  -9.0652  -9.0453  -9.0401  -9.0356  -9.0294
    -4.4912  -4.3996  -4.2528  -4.2128  -1.4455  -1.4226  -1.3342  -1.3265
    -1.1409  -1.0492  -1.0024  -0.9245  -0.9134  -0.8756  -0.8329  -0.7805
     4.8127   5.0726   5.2170   5.4431   5.9735   6.0343

          k = 0.3997 0.6426 0.2469 ( 21743 PWs)   bands (ev):

   -24.9395 -24.9386 -24.9382 -24.9376  -9.1444  -9.1320  -9.1277  -9.1193
    -9.0932  -9.0784  -9.0656  -9.0599  -9.0378  -9.0342  -9.0298  -9.0292
    -4.4522  -4.3724  -4.2400  -4.2032  -1.5745  -1.4885  -1.3872  -1.3777
    -1.1427  -1.0522  -1.0192  -0.9557  -0.8704  -0.8469  -0.7614  -0.7037
     4.8852   5.0130   5.3253   5.3761   5.8811   6.0080

          k = 0.3997 0.6426 0.4938 ( 21714 PWs)   bands (ev):

   -24.9392 -24.9388 -24.9382 -24.9379  -9.1602  -9.1551  -9.1393  -9.1359
    -9.0858  -9.0779  -9.0539  -9.0483  -9.0307  -9.0283  -9.0244  -9.0219
    -4.3715  -4.3347  -4.2171  -4.1976  -1.6914  -1.6481  -1.4672  -1.4524
    -1.1400  -1.0913  -0.9915  -0.9749  -0.8133  -0.7802  -0.6919  -0.6594
     5.0562   5.1168   5.2145   5.3756   6.0143   6.0742

     the Fermi energy is     2.7073 ev

!    total energy              =    -372.73855788 Ry
     estimated scf accuracy    <          5.7E-09 Ry
     smearing contrib. (-TS)   =       0.00000000 Ry
     internal energy E=F+TS    =    -372.73855788 Ry

     The total energy is F=E-TS. E is the sum of the following terms:
     one-electron contribution =     -79.23369516 Ry
     hartree contribution      =      53.45786585 Ry
     xc contribution           =     -51.40866377 Ry
     ewald contribution        =    -156.76149180 Ry
     one-center paw contrib.   =    -138.79257299 Ry

     convergence has been achieved in   6 iterations

     Forces acting on atoms (cartesian axes, Ry/au):

     atom    1 type  1   force =     0.00000670   -0.00000000    0.00004420
     atom    2 type  1   force =    -0.00000670   -0.00000000    0.00004420
     atom    3 type  1   force =    -0.00000670   -0.00000000   -0.00004420
     atom    4 type  1   force =     0.00000670    0.00000000   -0.00004420
     atom    5 type  3   force =     0.00011814    0.00000000    0.00009247
     atom    6 type  3   force =    -0.00011814    0.00000000    0.00009247
     atom    7 type  3   force =    -0.00011814    0.00000000   -0.00009247
     atom    8 type  3   force =     0.00011814    0.00000000   -0.00009247
     atom    9 type  2   force =    -0.00003765    0.00047097   -0.00031978
     atom   10 type  2   force =     0.00003765    0.00047097   -0.00031978
     atom   11 type  2   force =     0.00003765   -0.00047097   -0.00031978
     atom   12 type  2   force =     0.00003765    0.00047097    0.00031978
     atom   13 type  2   force =     0.00003765   -0.00047097    0.00031978
     atom   14 type  2   force =    -0.00003765   -0.00047097    0.00031978
     atom   15 type  2   force =    -0.00003765    0.00047097    0.00031978
     atom   16 type  2   force =    -0.00003765   -0.00047097   -0.00031978
     atom   17 type  2   force =    -0.00076999   -0.00000000    0.00010674
     atom   18 type  2   force =     0.00076999    0.00000000    0.00010674
     atom   19 type  2   force =     0.00076999   -0.00000000   -0.00010674
     atom   20 type  2   force =    -0.00076999    0.00000000   -0.00010674
     atom   21 type  2   force =    -0.00029470    0.00000000    0.00038241
     atom   22 type  2   force =     0.00029470   -0.00000000    0.00038241
     atom   23 type  2   force =     0.00029470    0.00000000   -0.00038241
     atom   24 type  2   force =    -0.00029470   -0.00000000   -0.00038241

     Total force =     0.002460     Total SCF correction =     0.000034


     Computing stress (Cartesian axis) and pressure

          total   stress  (Ry/bohr**3)                   (kbar)     P=        4.27
   0.00002795   0.00000000   0.00000000            4.11        0.00        0.00
   0.00000000   0.00002981   0.00000000            0.00        4.39        0.00
   0.00000000   0.00000000   0.00002934            0.00        0.00        4.32

     Energy error            =      2.2E-04 Ry
     Gradient error          =      7.7E-04 Ry/Bohr
     Cell gradient error     =      4.4E+00 kbar

     number of scf cycles    =   2
     number of bfgs steps    =   1

     enthalpy           old  =    -372.7383329639 Ry
     enthalpy           new  =    -372.7385578783 Ry

     CASE: enthalpy          _new < enthalpy          _old


     WARNING: bfgs curvature condition failed, Theta= 0.937
     new trust radius        =       0.0099974254 bohr
     new conv_thr            =            1.0E-10 Ry

     new unit-cell volume =   2785.06704 a.u.^3 (   412.70436 Ang^3 )
     density =      1.87464 g/cm^3

CELL_PARAMETERS (alat= 17.65461514)
   1.001730717   0.000000000   0.000000000
   0.000000000   0.623098807   0.000000000
   0.000000000   0.000000000   0.810873259

ATOMIC_POSITIONS (crystal)
Rb            0.1813251848        0.2500000000        0.6597139682
Rb            0.3186748152        0.7500000000        0.1597139682
Rb            0.8186748152        0.7500000000        0.3402860318
Rb            0.6813251848        0.2500000000        0.8402860318
Al            0.0618534296        0.2500000000        0.1861954501
Al            0.4381465704        0.7500000000        0.6861954501
Al            0.9381465704        0.7500000000        0.8138045499
Al            0.5618534296        0.2500000000        0.3138045499
H             0.0802304153        0.0227338678        0.3123896496
H             0.4197695847        0.5227338678        0.8123896496
H             0.4197695847        0.9772661322        0.8123896496
H             0.9197695847        0.5227338678        0.6876103504
H             0.9197695847        0.9772661322        0.6876103504
H             0.5802304153        0.4772661322        0.1876103504
H             0.5802304153        0.0227338678        0.1876103504
H             0.0802304153        0.4772661322        0.3123896496
H             0.0980803568        0.7500000000        0.8999675905
H             0.4019196432        0.2500000000        0.3999675905
H             0.9019196432        0.2500000000        0.1000324095
H             0.5980803568        0.7500000000        0.6000324095
H             0.1895133556        0.2500000000        0.0392269739
H             0.3104866444        0.7500000000        0.5392269739
H             0.8104866444        0.7500000000        0.9607730261
H             0.6895133556        0.2500000000        0.4607730261



     Writing output data file ./RbAlH4.save/
     NEW-OLD atomic charge density approx. for the potential
     extrapolated charge   64.17720, renormalised to   64.00000

     total cpu time spent up to now is      111.6 secs

     Self-consistent Calculation

     iteration #  1     ecut=    60.00 Ry     beta= 0.70
     Davidson diagonalization with overlap
     ethr =  1.00E-06,  avg # of iterations =  2.0

     total cpu time spent up to now is      117.3 secs

     total energy              =    -372.73840494 Ry
     estimated scf accuracy    <       0.00019048 Ry

     iteration #  2     ecut=    60.00 Ry     beta= 0.70
     Davidson diagonalization with overlap
     ethr =  2.98E-07,  avg # of iterations =  2.0

     total cpu time spent up to now is      123.3 secs

     total energy              =    -372.73878597 Ry
     estimated scf accuracy    <       0.00025291 Ry

     iteration #  3     ecut=    60.00 Ry     beta= 0.70
     Davidson diagonalization with overlap
     ethr =  2.98E-07,  avg # of iterations =  2.0

     total cpu time spent up to now is      128.6 secs

     total energy              =    -372.73877409 Ry
     estimated scf accuracy    <       0.00005637 Ry

     iteration #  4     ecut=    60.00 Ry     beta= 0.70
     Davidson diagonalization with overlap
     ethr =  8.81E-08,  avg # of iterations =  2.0

     total cpu time spent up to now is      133.9 secs

     total energy              =    -372.73877132 Ry
     estimated scf accuracy    <       0.00000985 Ry

     iteration #  5     ecut=    60.00 Ry     beta= 0.70
     Davidson diagonalization with overlap
     ethr =  1.54E-08,  avg # of iterations =  2.0

     total cpu time spent up to now is      139.2 secs

     total energy              =    -372.73877331 Ry
     estimated scf accuracy    <       0.00000003 Ry

     iteration #  6     ecut=    60.00 Ry     beta= 0.70
     Davidson diagonalization with overlap
     ethr =  4.70E-11,  avg # of iterations =  3.1

     total cpu time spent up to now is      145.9 secs

     total energy              =    -372.73877333 Ry
     estimated scf accuracy    <          9.4E-09 Ry

     iteration #  7     ecut=    60.00 Ry     beta= 0.70
     Davidson diagonalization with overlap
     ethr =  1.47E-11,  avg # of iterations =  2.0

     total cpu time spent up to now is      151.1 secs

     total energy              =    -372.73877333 Ry
     estimated scf accuracy    <          2.0E-09 Ry

     iteration #  8     ecut=    60.00 Ry     beta= 0.70
     Davidson diagonalization with overlap
     ethr =  3.18E-12,  avg # of iterations =  2.1

     total cpu time spent up to now is      156.6 secs

     total energy              =    -372.73877333 Ry
     estimated scf accuracy    <          3.1E-10 Ry

     iteration #  9     ecut=    60.00 Ry     beta= 0.70
     Davidson diagonalization with overlap
     ethr =  4.86E-13,  avg # of iterations =  2.3

     total cpu time spent up to now is      161.5 secs

     total energy              =    -372.73877333 Ry
     estimated scf accuracy    <          1.7E-10 Ry

     iteration # 10     ecut=    60.00 Ry     beta= 0.70
     Davidson diagonalization with overlap
     ethr =  2.61E-13,  avg # of iterations =  2.0

     total cpu time spent up to now is      166.9 secs

     End of self-consistent calculation

          k = 0.0000 0.0000 0.0000 ( 21731 PWs)   bands (ev):

   -24.9627 -24.9586 -24.9571 -24.9561  -9.1889  -9.1402  -9.1401  -9.1353
    -9.1267  -9.0891  -9.0670  -9.0656  -9.0502  -9.0369  -9.0305  -9.0256
    -5.0366  -4.3669  -4.2100  -3.9951  -1.8037  -1.4845  -1.1701  -1.1622
    -1.1456  -1.1095  -0.9813  -0.8117  -0.7998  -0.7134  -0.6627  -0.5137
     4.6148   4.6870   5.2160   5.2197   5.2611   5.4870

          k = 0.0000 0.0000 0.2466 ( 21745 PWs)   bands (ev):

   -24.9622 -24.9583 -24.9578 -24.9562  -9.1926  -9.1407  -9.1368  -9.1297
    -9.1199  -9.0860  -9.0776  -9.0638  -9.0512  -9.0438  -9.0373  -9.0260
    -4.9612  -4.4063  -4.1881  -4.0005  -1.8014  -1.4597  -1.3217  -1.1421
    -1.0910  -0.9919  -0.9662  -0.8446  -0.8007  -0.7909  -0.7419  -0.5449
     4.6282   4.7713   4.9851   5.3365   5.3438   5.5537

          k = 0.0000 0.0000 0.4933 ( 21818 PWs)   bands (ev):

   -24.9609 -24.9592 -24.9576 -24.9567  -9.1881  -9.1678  -9.1161  -9.1148
    -9.0955  -9.0877  -9.0835  -9.0779  -9.0689  -9.0578  -9.0341  -9.0282
    -4.7699  -4.5522  -4.1151  -4.0372  -1.7268  -1.5416  -1.3336  -1.0888
    -1.0660  -0.9742  -0.9739  -0.9295  -0.8739  -0.8101  -0.7571  -0.6416
     4.5824   4.7086   5.1689   5.5349   5.6162   5.7163

          k = 0.0000 0.3210 0.0000 ( 21755 PWs)   bands (ev):

   -24.9621 -24.9583 -24.9576 -24.9562  -9.1804  -9.1488  -9.1324  -9.1304
    -9.1230  -9.0908  -9.0899  -9.0734  -9.0500  -9.0409  -9.0376  -9.0266
    -4.9065  -4.3516  -4.2087  -4.0526  -1.7364  -1.4202  -1.3234  -1.2318
    -1.1453  -1.0792  -1.0439  -0.9181  -0.8104  -0.7402  -0.6352  -0.5897
     4.7936   4.8369   4.8410   5.2954   5.6384   5.6488

          k = 0.0000 0.3210 0.2466 ( 21760 PWs)   bands (ev):

   -24.9617 -24.9581 -24.9581 -24.9564  -9.1803  -9.1597  -9.1420  -9.1221
    -9.1097  -9.1084  -9.0798  -9.0750  -9.0493  -9.0405  -9.0384  -9.0273
    -4.8377  -4.3728  -4.1932  -4.0531  -1.7211  -1.5273  -1.3070  -1.1809
    -1.1711  -1.1063  -1.0330  -0.9801  -0.8560  -0.6947  -0.6137  -0.6135
     4.8337   4.8916   4.9181   5.3651   5.4674   5.6808

          k = 0.0000 0.3210 0.4933 ( 21757 PWs)   bands (ev):

   -24.9606 -24.9593 -24.9575 -24.9568  -9.1756  -9.1611  -9.1594  -9.1400
    -9.1100  -9.0908  -9.0795  -9.0608  -9.0567  -9.0470  -9.0345  -9.0299
    -4.6659  -4.4806  -4.1354  -4.0754  -1.6393  -1.5372  -1.4677  -1.3657
    -1.1386  -1.0681  -1.0271  -0.9659  -0.8493  -0.7359  -0.6207  -0.5998
     4.8256   4.9086   5.1846   5.4733   5.6484   5.7198

          k = 0.0000 0.6420 0.0000 ( 21737 PWs)   bands (ev):

   -24.9606 -24.9588 -24.9576 -24.9568  -9.1643  -9.1532  -9.1479  -9.1314
    -9.1074  -9.0970  -9.0878  -9.0840  -9.0678  -9.0595  -9.0374  -9.0307
    -4.5946  -4.3067  -4.2931  -4.1801  -1.5819  -1.5206  -1.4107  -1.3305
    -1.2203  -1.0641  -0.9452  -0.9220  -0.8801  -0.8655  -0.7598  -0.6671
     4.7570   5.0093   5.5065   5.5382   5.7147   5.8099

          k = 0.0000 0.6420 0.2466 ( 21727 PWs)   bands (ev):

   -24.9604 -24.9590 -24.9575 -24.9568  -9.1756  -9.1593  -9.1551  -9.1428
    -9.1181  -9.0945  -9.0863  -9.0666  -9.0632  -9.0461  -9.0359  -9.0313
    -4.5457  -4.3126  -4.2592  -4.1711  -1.6918  -1.5931  -1.4587  -1.3651
    -1.1232  -1.1021  -0.9998  -0.9246  -0.8963  -0.8222  -0.7158  -0.6050
     4.9227   5.1064   5.3244   5.4041   5.6838   5.7302

          k = 0.0000 0.6420 0.4933 ( 21680 PWs)   bands (ev):

   -24.9600 -24.9594 -24.9573 -24.9570  -9.1907  -9.1840  -9.1464  -9.1463
    -9.1308  -9.1163  -9.0630  -9.0577  -9.0455  -9.0386  -9.0333  -9.0321
    -4.4348  -4.3429  -4.2012  -4.1672  -1.8276  -1.7647  -1.4175  -1.3296
    -1.1979  -1.1853  -1.0186  -0.9774  -0.8454  -0.7598  -0.6225  -0.5674
     5.1493   5.1997   5.3892   5.4145   5.7000   5.8366

          k = 0.1997 0.0000 0.0000 ( 21777 PWs)   bands (ev):

   -24.9623 -24.9591 -24.9570 -24.9561  -9.1770  -9.1483  -9.1439  -9.1315
    -9.1080  -9.0950  -9.0663  -9.0643  -9.0584  -9.0408  -9.0327  -9.0314
    -4.9847  -4.4523  -4.1886  -4.0091  -1.7312  -1.4411  -1.2541  -1.1526
    -1.1099  -1.0575  -1.0000  -0.8461  -0.8024  -0.7229  -0.6674  -0.5443
     4.6120   4.6802   4.9869   5.2597   5.3449   5.3810

          k = 0.1997 0.0000 0.2466 ( 21738 PWs)   bands (ev):

   -24.9619 -24.9588 -24.9575 -24.9563  -9.1821  -9.1491  -9.1290  -9.1262
    -9.1133  -9.0924  -9.0743  -9.0642  -9.0551  -9.0540  -9.0409  -9.0261
    -4.9128  -4.4529  -4.1963  -4.0211  -1.7320  -1.4266  -1.3144  -1.1255
    -1.1044  -0.9867  -0.9828  -0.8700  -0.8357  -0.7546  -0.7522  -0.5830
     4.6135   4.8345   4.9638   5.1496   5.3403   5.4732

          k = 0.1997 0.0000 0.4933 ( 21747 PWs)   bands (ev):

   -24.9606 -24.9591 -24.9578 -24.9569  -9.1791  -9.1617  -9.1168  -9.1123
    -9.0955  -9.0917  -9.0855  -9.0790  -9.0705  -9.0653  -9.0354  -9.0288
    -4.7326  -4.5403  -4.1571  -4.0730  -1.6654  -1.4973  -1.3187  -1.1044
    -1.0522  -0.9867  -0.9708  -0.9254  -0.8805  -0.8218  -0.7813  -0.6838
     4.6313   4.7698   5.2209   5.3874   5.4839   5.5364

          k = 0.1997 0.3210 0.0000 ( 21736 PWs)   bands (ev):

   -24.9617 -24.9587 -24.9574 -24.9563  -9.1693  -9.1452  -9.1413  -9.1267
    -9.1135  -9.0974  -9.0896  -9.0695  -9.0544  -9.0480  -9.0388  -9.0318
    -4.8625  -4.4202  -4.1927  -4.0622  -1.6746  -1.3792  -1.3062  -1.2027
    -1.1976  -1.1383  -1.0152  -0.8949  -0.8142  -0.7297  -0.7046  -0.6022
     4.6180   4.8381   5.0551   5.2339   5.6594   5.6891

          k = 0.1997 0.3210 0.2466 ( 21747 PWs)   bands (ev):

   -24.9614 -24.9585 -24.9578 -24.9565  -9.1706  -9.1603  -9.1346  -9.1251
    -9.1088  -9.1056  -9.0838  -9.0761  -9.0502  -9.0462  -9.0419  -9.0303
    -4.7970  -4.4146  -4.1956  -4.0672  -1.6790  -1.4688  -1.3145  -1.2100
    -1.1701  -1.1079  -0.9986  -0.9818  -0.8628  -0.6975  -0.6907  -0.6096
     4.7042   4.8796   5.0782   5.2624   5.5741   5.6893

          k = 0.1997 0.3210 0.4933 ( 21750 PWs)   bands (ev):

   -24.9604 -24.9591 -24.9577 -24.9570  -9.1697  -9.1657  -9.1451  -9.1358
    -9.1135  -9.0956  -9.0794  -9.0656  -9.0559  -9.0511  -9.0377  -9.0312
    -4.6359  -4.4742  -4.1638  -4.1002  -1.6364  -1.4883  -1.4567  -1.3105
    -1.1552  -1.0674  -1.0339  -0.9769  -0.8502  -0.7441  -0.6599  -0.6246
     4.8431   4.9242   5.1673   5.4124   5.5329   5.6912

          k = 0.1997 0.6420 0.0000 ( 21733 PWs)   bands (ev):

   -24.9603 -24.9586 -24.9579 -24.9570  -9.1565  -9.1490  -9.1434  -9.1293
    -9.1067  -9.1013  -9.0962  -9.0759  -9.0713  -9.0602  -9.0442  -9.0356
    -4.5692  -4.3274  -4.2949  -4.1912  -1.5414  -1.4931  -1.3755  -1.3317
    -1.2049  -1.0595  -0.9860  -0.9333  -0.8801  -0.8624  -0.8003  -0.7085
     4.7255   5.0599   5.3802   5.5549   5.8027   6.0176

          k = 0.1997 0.6420 0.2466 ( 21723 PWs)   bands (ev):

   -24.9601 -24.9588 -24.9578 -24.9570  -9.1726  -9.1591  -9.1442  -9.1369
    -9.1241  -9.1002  -9.0805  -9.0693  -9.0616  -9.0478  -9.0425  -9.0369
    -4.5230  -4.3214  -4.2692  -4.1824  -1.6677  -1.5484  -1.4356  -1.3446
    -1.1909  -1.0756  -1.0097  -0.9422  -0.8750  -0.8179  -0.7575  -0.6423
     4.8445   5.0417   5.4213   5.5556   5.6264   5.8222

          k = 0.1997 0.6420 0.4933 ( 21723 PWs)   bands (ev):

   -24.9597 -24.9592 -24.9575 -24.9572  -9.1881  -9.1819  -9.1440  -9.1409
    -9.1317  -9.1161  -9.0603  -9.0543  -9.0502  -9.0415  -9.0389  -9.0377
    -4.4197  -4.3390  -4.2142  -4.1795  -1.7944  -1.7322  -1.4019  -1.3232
    -1.2778  -1.1806  -0.9889  -0.9560  -0.8404  -0.7613  -0.6628  -0.6049
     5.0584   5.0969   5.3339   5.5855   5.8220   5.8778

          k = 0.3993 0.0000 0.0000 ( 21792 PWs)   bands (ev):

   -24.9614 -24.9602 -24.9567 -24.9563  -9.1589  -9.1519  -9.1352  -9.1214
    -9.1078  -9.0933  -9.0794  -9.0646  -9.0635  -9.0522  -9.0381  -9.0341
    -4.8413  -4.6426  -4.1314  -4.0604  -1.5712  -1.4060  -1.3066  -1.1258
    -1.1064  -1.0481  -0.9954  -0.9146  -0.7780  -0.7476  -0.6671  -0.6186
     4.5880   4.7240   4.8650   5.1290   5.3490   5.4484

          k = 0.3993 0.0000 0.2466 ( 21776 PWs)   bands (ev):

   -24.9610 -24.9598 -24.9571 -24.9566  -9.1613  -9.1523  -9.1240  -9.1169
    -9.1044  -9.0990  -9.0814  -9.0698  -9.0662  -9.0662  -9.0368  -9.0310
    -4.7801  -4.6022  -4.1592  -4.0841  -1.5770  -1.4341  -1.2695  -1.1238
    -1.0817  -1.0270  -0.9979  -0.9212  -0.8108  -0.7787  -0.7315  -0.6695
     4.6431   4.7675   5.0117   5.2136   5.2328   5.2572

          k = 0.3993 0.0000 0.4933 ( 21729 PWs)   bands (ev):

   -24.9600 -24.9592 -24.9579 -24.9574  -9.1580  -9.1490  -9.1212  -9.1076
    -9.1057  -9.0986  -9.0856  -9.0785  -9.0779  -9.0745  -9.0349  -9.0320
    -4.6380  -4.5496  -4.2048  -4.1554  -1.5331  -1.4509  -1.2626  -1.1654
    -1.0171  -0.9811  -0.9807  -0.9388  -0.8785  -0.8508  -0.8119  -0.7721
     4.7488   4.8325   5.2511   5.3021   5.3544   5.4894

          k = 0.3993 0.3210 0.0000 ( 21753 PWs)   bands (ev):

   -24.9609 -24.9597 -24.9570 -24.9566  -9.1486  -9.1410  -9.1329  -9.1292
    -9.1140  -9.0980  -9.0905  -9.0784  -9.0617  -9.0467  -9.0448  -9.0416
    -4.7416  -4.5759  -4.1503  -4.0986  -1.5307  -1.3667  -1.2740  -1.2641
    -1.1862  -1.0958  -1.0421  -0.9078  -0.8105  -0.7964  -0.7054  -0.6576
     4.5973   4.7369   5.2048   5.2055   5.4776   5.5297

          k = 0.3993 0.3210 0.2466 ( 21760 PWs)   bands (ev):

   -24.9605 -24.9595 -24.9574 -24.9568  -9.1574  -9.1517  -9.1314  -9.1151
    -9.1121  -9.1032  -9.0899  -9.0859  -9.0593  -9.0511  -9.0418  -9.0365
    -4.6862  -4.5388  -4.1660  -4.1116  -1.5743  -1.4399  -1.3194  -1.2002
    -1.1501  -1.0921  -1.0162  -0.9620  -0.8671  -0.8146  -0.6819  -0.6525
     4.6885   4.7967   5.1684   5.2663   5.4342   5.5224

          k = 0.3993 0.3210 0.4933 ( 21742 PWs)   bands (ev):

   -24.9597 -24.9590 -24.9580 -24.9575  -9.1623  -9.1598  -9.1327  -9.1287
    -9.1104  -9.0977  -9.0903  -9.0801  -9.0575  -9.0561  -9.0378  -9.0347
    -4.5604  -4.4884  -4.1941  -4.1581  -1.5954  -1.5344  -1.3079  -1.2333
    -1.1469  -1.0705  -1.0655  -1.0197  -0.8466  -0.7997  -0.6927  -0.6736
     4.9201   4.9430   5.1088   5.2334   5.4993   5.6119

          k = 0.3993 0.6420 0.0000 ( 21760 PWs)   bands (ev):

   -24.9596 -24.9586 -24.9581 -24.9575  -9.1399  -9.1390  -9.1325  -9.1266
    -9.1136  -9.1115  -9.0962  -9.0842  -9.0645  -9.0594  -9.0549  -9.0488
    -4.5004  -4.4091  -4.2631  -4.2230  -1.4563  -1.4338  -1.3457  -1.3381
    -1.1529  -1.0614  -1.0144  -0.9369  -0.9255  -0.8877  -0.8457  -0.7934
     4.7986   5.0576   5.2016   5.4265   5.9543   6.0162

          k = 0.3993 0.6420 0.2466 ( 21743 PWs)   bands (ev):

   -24.9594 -24.9586 -24.9582 -24.9576  -9.1625  -9.1502  -9.1459  -9.1377
    -9.1118  -9.0972  -9.0845  -9.0790  -9.0571  -9.0535  -9.0492  -9.0486
    -4.4617  -4.3822  -4.2505  -4.2136  -1.5850  -1.4993  -1.3984  -1.3893
    -1.1544  -1.0642  -1.0311  -0.9678  -0.8829  -0.8592  -0.7745  -0.7168
     4.8707   4.9978   5.3098   5.3602   5.8618   5.9890

          k = 0.3993 0.6420 0.4933 ( 21714 PWs)   bands (ev):

   -24.9591 -24.9587 -24.9581 -24.9578  -9.1780  -9.1730  -9.1574  -9.1540
    -9.1045  -9.0967  -9.0729  -9.0674  -9.0501  -9.0478  -9.0438  -9.0414
    -4.3815  -4.3448  -4.2277  -4.2082  -1.7014  -1.6582  -1.4782  -1.4635
    -1.1515  -1.1029  -1.0033  -0.9868  -0.8260  -0.7929  -0.7051  -0.6726
     5.0409   5.1014   5.1990   5.3599   5.9942   6.0540

     the Fermi energy is     2.6871 ev

!    total energy              =    -372.73877333 Ry
     estimated scf accuracy    <          5.1E-13 Ry
     smearing contrib. (-TS)   =       0.00000000 Ry
     internal energy E=F+TS    =    -372.73877333 Ry

     The total energy is F=E-TS. E is the sum of the following terms:
     one-electron contribution =     -79.46765217 Ry
     hartree contribution      =      53.53234250 Ry
     xc contribution           =     -51.39905736 Ry
     ewald contribution        =    -156.61298448 Ry
     one-center paw contrib.   =    -138.79142182 Ry

     convergence has been achieved in  10 iterations

     Forces acting on atoms (cartesian axes, Ry/au):

     atom    1 type  1   force =     0.00001723    0.00000000    0.00004873
     atom    2 type  1   force =    -0.00001723   -0.00000000    0.00004873
     atom    3 type  1   force =    -0.00001723    0.00000000   -0.00004873
     atom    4 type  1   force =     0.00001723   -0.00000000   -0.00004873
     atom    5 type  3   force =     0.00011298    0.00000000    0.00006893
     atom    6 type  3   force =    -0.00011298    0.00000000    0.00006893
     atom    7 type  3   force =    -0.00011298    0.00000000   -0.00006893
     atom    8 type  3   force =     0.00011298    0.00000000   -0.00006893
     atom    9 type  2   force =    -0.00008255    0.00081915   -0.00057365
     atom   10 type  2   force =     0.00008255    0.00081915   -0.00057365
     atom   11 type  2   force =     0.00008255   -0.00081915   -0.00057365
     atom   12 type  2   force =     0.00008255    0.00081915    0.00057365
     atom   13 type  2   force =     0.00008255   -0.00081915    0.00057365
     atom   14 type  2   force =    -0.00008255   -0.00081915    0.00057365
     atom   15 type  2   force =    -0.00008255    0.00081915    0.00057365
     atom   16 type  2   force =    -0.00008255   -0.00081915   -0.00057365
     atom   17 type  2   force =    -0.00119910   -0.00000000   -0.00008747
     atom   18 type  2   force =     0.00119910   -0.00000000   -0.00008747
     atom   19 type  2   force =     0.00119910    0.00000000    0.00008747
     atom   20 type  2   force =    -0.00119910    0.00000000    0.00008747
     atom   21 type  2   force =    -0.00064900   -0.00000000    0.00070156
     atom   22 type  2   force =     0.00064900    0.00000000    0.00070156
     atom   23 type  2   force =     0.00064900    0.00000000   -0.00070156
     atom   24 type  2   force =    -0.00064900   -0.00000000   -0.00070156

     Total force =     0.004192     Total SCF correction =     0.000000


     Computing stress (Cartesian axis) and pressure

          total   stress  (Ry/bohr**3)                   (kbar)     P=        3.60
   0.00002305   0.00000000   0.00000000            3.39        0.00        0.00
   0.00000000   0.00002552   0.00000000            0.00        3.75        0.00
   0.00000000   0.00000000   0.00002476            0.00        0.00        3.64

     Energy error            =      2.2E-04 Ry
     Gradient error          =      1.2E-03 Ry/Bohr
     Cell gradient error     =      3.8E+00 kbar

     number of scf cycles    =   3
     number of bfgs steps    =   2

     enthalpy           old  =    -372.7385578783 Ry
     enthalpy           new  =    -372.7387733277 Ry

     CASE: enthalpy          _new < enthalpy          _old

     new trust radius        =       0.0150027467 bohr
     new conv_thr            =       0.0000000001 Ry

     new unit-cell volume =   2796.56541 a.u.^3 (   414.40824 Ang^3 )
     density =      1.86693 g/cm^3

CELL_PARAMETERS (alat= 17.65461514)
   1.003044701   0.000000000   0.000000000
   0.000000000   0.623984494   0.000000000
   0.000000000   0.000000000   0.812000192

ATOMIC_POSITIONS (crystal)
Rb            0.1813266264        0.2500000000        0.6597206785
Rb            0.3186733736        0.7500000000        0.1597206785
Rb            0.8186733736        0.7500000000        0.3402793215
Rb            0.6813266264        0.2500000000        0.8402793215
Al            0.0618668468        0.2500000000        0.1862074535
Al            0.4381331532        0.7500000000        0.6862074535
Al            0.9381331532        0.7500000000        0.8137925465
Al            0.5618668468        0.2500000000        0.3137925465
H             0.0802236146        0.0228524194        0.3123266187
H             0.4197763854        0.5228524194        0.8123266187
H             0.4197763854        0.9771475806        0.8123266187
H             0.9197763854        0.5228524194        0.6876733813
H             0.9197763854        0.9771475806        0.6876733813
H             0.5802236146        0.4771475806        0.1876733813
H             0.5802236146        0.0228524194        0.1876733813
H             0.0802236146        0.4771475806        0.3123266187
H             0.0979679119        0.7500000000        0.8999700713
H             0.4020320881        0.2500000000        0.3999700713
H             0.9020320881        0.2500000000        0.1000299287
H             0.5979679119        0.7500000000        0.6000299287
H             0.1894600167        0.2500000000        0.0393030005
H             0.3105399833        0.7500000000        0.5393030005
H             0.8105399833        0.7500000000        0.9606969995
H             0.6894600167        0.2500000000        0.4606969995



     Writing output data file ./RbAlH4.save/
     NEW-OLD atomic charge density approx. for the potential
     extrapolated charge   64.26270, renormalised to   64.00000

     total cpu time spent up to now is      178.5 secs

     Self-consistent Calculation

     iteration #  1     ecut=    60.00 Ry     beta= 0.70
     Davidson diagonalization with overlap
     ethr =  1.00E-06,  avg # of iterations =  2.0

     total cpu time spent up to now is      184.3 secs

     total energy              =    -372.73823762 Ry
     estimated scf accuracy    <       0.00042890 Ry

     iteration #  2     ecut=    60.00 Ry     beta= 0.70
     Davidson diagonalization with overlap
     ethr =  6.70E-07,  avg # of iterations =  2.0

     total cpu time spent up to now is      190.6 secs

     total energy              =    -372.73908274 Ry
     estimated scf accuracy    <       0.00056462 Ry

     iteration #  3     ecut=    60.00 Ry     beta= 0.70
     Davidson diagonalization with overlap
     ethr =  6.70E-07,  avg # of iterations =  2.0

     total cpu time spent up to now is      195.9 secs

     total energy              =    -372.73903919 Ry
     estimated scf accuracy    <       0.00012493 Ry

     iteration #  4     ecut=    60.00 Ry     beta= 0.70
     Davidson diagonalization with overlap
     ethr =  1.95E-07,  avg # of iterations =  2.0

     total cpu time spent up to now is      201.3 secs

     total energy              =    -372.73905410 Ry
     estimated scf accuracy    <       0.00000295 Ry

     iteration #  5     ecut=    60.00 Ry     beta= 0.70
     Davidson diagonalization with overlap
     ethr =  4.61E-09,  avg # of iterations =  2.0

     total cpu time spent up to now is      206.9 secs

     total energy              =    -372.73905493 Ry
     estimated scf accuracy    <       0.00000016 Ry

     iteration #  6     ecut=    60.00 Ry     beta= 0.70
     Davidson diagonalization with overlap
     ethr =  2.55E-10,  avg # of iterations =  2.0

     total cpu time spent up to now is      212.6 secs

     total energy              =    -372.73905496 Ry
     estimated scf accuracy    <          7.4E-09 Ry

     iteration #  7     ecut=    60.00 Ry     beta= 0.70
     Davidson diagonalization with overlap
     ethr =  1.15E-11,  avg # of iterations =  4.0

     total cpu time spent up to now is      219.4 secs

     total energy              =    -372.73905496 Ry
     estimated scf accuracy    <          6.3E-10 Ry

     iteration #  8     ecut=    60.00 Ry     beta= 0.70
     Davidson diagonalization with overlap
     ethr =  9.79E-13,  avg # of iterations =  3.6

     total cpu time spent up to now is      225.6 secs

     total energy              =    -372.73905496 Ry
     estimated scf accuracy    <          7.4E-10 Ry

     iteration #  9     ecut=    60.00 Ry     beta= 0.70
     Davidson diagonalization with overlap
     ethr =  9.79E-13,  avg # of iterations =  2.0

     total cpu time spent up to now is      230.9 secs

     End of self-consistent calculation

          k = 0.0000 0.0000 0.0000 ( 21731 PWs)   bands (ev):

   -24.9922 -24.9883 -24.9868 -24.9858  -9.2152  -9.1674  -9.1673  -9.1629
    -9.1542  -9.1176  -9.0958  -9.0944  -9.0789  -9.0659  -9.0596  -9.0547
    -5.0468  -4.3835  -4.2261  -4.0130  -1.8167  -1.5020  -1.1875  -1.1781
    -1.1627  -1.1280  -1.0019  -0.8315  -0.8181  -0.7344  -0.6838  -0.5342
     4.5968   4.6678   5.1909   5.1952   5.2260   5.4657

          k = 0.0000 0.0000 0.2463 ( 21745 PWs)   bands (ev):

   -24.9917 -24.9880 -24.9874 -24.9859  -9.2188  -9.1679  -9.1640  -9.1574
    -9.1474  -9.1145  -9.1062  -9.0926  -9.0799  -9.0726  -9.0663  -9.0551
    -4.9722  -4.4223  -4.2049  -4.0186  -1.8144  -1.4768  -1.3380  -1.1597
    -1.1084  -1.0096  -0.9867  -0.8642  -0.8191  -0.8111  -0.7629  -0.5651
     4.6096   4.7526   4.9623   5.3091   5.3093   5.5317

          k = 0.0000 0.0000 0.4926 ( 21818 PWs)   bands (ev):

   -24.9905 -24.9889 -24.9873 -24.9864  -9.2144  -9.1944  -9.1436  -9.1428
    -9.1238  -9.1159  -9.1116  -9.1066  -9.0977  -9.0864  -9.0631  -9.0573
    -4.7827  -4.5669  -4.1329  -4.0555  -1.7404  -1.5567  -1.3507  -1.1067
    -1.0842  -0.9934  -0.9923  -0.9476  -0.8941  -0.8307  -0.7757  -0.6610
     4.5631   4.6876   5.1484   5.5127   5.5887   5.6833

          k = 0.0000 0.3205 0.0000 ( 21755 PWs)   bands (ev):

   -24.9916 -24.9880 -24.9872 -24.9859  -9.2069  -9.1761  -9.1598  -9.1577
    -9.1506  -9.1192  -9.1181  -9.1020  -9.0788  -9.0698  -9.0667  -9.0558
    -4.9180  -4.3679  -4.2253  -4.0698  -1.7502  -1.4376  -1.3411  -1.2482
    -1.1633  -1.0966  -1.0621  -0.9381  -0.8302  -0.7607  -0.6556  -0.6096
     4.7746   4.8163   4.8207   5.2690   5.6102   5.6136

          k = 0.0000 0.3205 0.2463 ( 21760 PWs)   bands (ev):

   -24.9912 -24.9877 -24.9877 -24.9861  -9.2067  -9.1866  -9.1692  -9.1497
    -9.1375  -9.1363  -9.1083  -9.1035  -9.0781  -9.0694  -9.0674  -9.0565
    -4.8498  -4.3890  -4.2100  -4.0705  -1.7348  -1.5438  -1.3236  -1.1988
    -1.1892  -1.1248  -1.0510  -0.9985  -0.8756  -0.7154  -0.6340  -0.6334
     4.8138   4.8718   4.8973   5.3373   5.4433   5.6469

          k = 0.0000 0.3205 0.4926 ( 21757 PWs)   bands (ev):

   -24.9902 -24.9889 -24.9872 -24.9865  -9.2021  -9.1879  -9.1863  -9.1672
    -9.1378  -9.1191  -9.1079  -9.0895  -9.0855  -9.0760  -9.0635  -9.0590
    -4.6797  -4.4960  -4.1528  -4.0932  -1.6536  -1.5532  -1.4834  -1.3828
    -1.1569  -1.0868  -1.0451  -0.9840  -0.8682  -0.7556  -0.6409  -0.6203
     4.8063   4.8883   5.1613   5.4471   5.6240   5.6927

          k = 0.0000 0.6410 0.0000 ( 21737 PWs)   bands (ev):

   -24.9902 -24.9885 -24.9872 -24.9865  -9.1912  -9.1803  -9.1751  -9.1588
    -9.1352  -9.1250  -9.1161  -9.1124  -9.0963  -9.0883  -9.0663  -9.0597
    -4.6088  -4.3233  -4.3088  -4.1961  -1.5973  -1.5369  -1.4268  -1.3479
    -1.2386  -1.0828  -0.9636  -0.9416  -0.8993  -0.8854  -0.7784  -0.6871
     4.7377   4.9884   5.4816   5.5103   5.6873   5.7824

          k = 0.0000 0.6410 0.2463 ( 21727 PWs)   bands (ev):

   -24.9900 -24.9886 -24.9872 -24.9865  -9.2023  -9.1862  -9.1821  -9.1700
    -9.1458  -9.1226  -9.1146  -9.0951  -9.0919  -9.0750  -9.0648  -9.0604
    -4.5605  -4.3293  -4.2753  -4.1873  -1.7068  -1.6082  -1.4755  -1.3820
    -1.1419  -1.1207  -1.0181  -0.9437  -0.9154  -0.8418  -0.7347  -0.6253
     4.9026   5.0846   5.3013   5.3771   5.6598   5.7013

          k = 0.0000 0.6410 0.4926 ( 21680 PWs)   bands (ev):

   -24.9896 -24.9891 -24.9869 -24.9867  -9.2171  -9.2105  -9.1735  -9.1734
    -9.1584  -9.1440  -9.0916  -9.0864  -9.0745  -9.0677  -9.0623  -9.0612
    -4.4507  -4.3597  -4.2178  -4.1838  -1.8415  -1.7791  -1.4336  -1.3463
    -1.2168  -1.2038  -1.0366  -0.9954  -0.8644  -0.7794  -0.6422  -0.5877
     5.1276   5.1774   5.3661   5.3902   5.6727   5.8080

          k = 0.1994 0.0000 0.0000 ( 21777 PWs)   bands (ev):

   -24.9919 -24.9887 -24.9867 -24.9858  -9.2035  -9.1754  -9.1710  -9.1592
    -9.1358  -9.1233  -9.0950  -9.0932  -9.0870  -9.0697  -9.0617  -9.0605
    -4.9954  -4.4681  -4.2049  -4.0269  -1.7450  -1.4584  -1.2714  -1.1703
    -1.1262  -1.0755  -1.0202  -0.8645  -0.8224  -0.7438  -0.6884  -0.5647
     4.5924   4.6619   4.9638   5.2278   5.3182   5.3599

          k = 0.1994 0.0000 0.2463 ( 21738 PWs)   bands (ev):

   -24.9914 -24.9885 -24.9872 -24.9860  -9.2085  -9.1761  -9.1564  -9.1540
    -9.1410  -9.1208  -9.1030  -9.0930  -9.0837  -9.0827  -9.0698  -9.0553
    -4.9242  -4.4687  -4.2129  -4.0391  -1.7457  -1.4436  -1.3313  -1.1433
    -1.1216  -1.0044  -1.0030  -0.8885  -0.8554  -0.7747  -0.7730  -0.6030
     4.5946   4.8155   4.9409   5.1214   5.3110   5.4514

          k = 0.1994 0.0000 0.4926 ( 21747 PWs)   bands (ev):

   -24.9902 -24.9888 -24.9874 -24.9866  -9.2055  -9.1885  -9.1443  -9.1403
    -9.1238  -9.1197  -9.1136  -9.1076  -9.0992  -9.0937  -9.0644  -9.0579
    -4.7458  -4.5552  -4.1744  -4.0909  -1.6795  -1.5128  -1.3357  -1.1222
    -1.0706  -1.0049  -0.9903  -0.9436  -0.9004  -0.8423  -0.7999  -0.7029
     4.6117   4.7485   5.2002   5.3573   5.4567   5.5141

          k = 0.1994 0.3205 0.0000 ( 21736 PWs)   bands (ev):

   -24.9913 -24.9884 -24.9871 -24.9860  -9.1960  -9.1725  -9.1685  -9.1543
    -9.1412  -9.1256  -9.1178  -9.0982  -9.0830  -9.0769  -9.0678  -9.0608
    -4.8744  -4.4359  -4.2094  -4.0794  -1.6889  -1.3966  -1.3240  -1.2199
    -1.2147  -1.1560  -1.0334  -0.9148  -0.8340  -0.7502  -0.7242  -0.6226
     4.5986   4.8176   5.0339   5.2092   5.6275   5.6637

          k = 0.1994 0.3205 0.2463 ( 21747 PWs)   bands (ev):

   -24.9909 -24.9882 -24.9875 -24.9862  -9.1972  -9.1872  -9.1620  -9.1527
    -9.1367  -9.1335  -9.1122  -9.1046  -9.0790  -9.0750  -9.0709  -9.0594
    -4.8095  -4.4304  -4.2124  -4.0847  -1.6932  -1.4854  -1.3313  -1.2273
    -1.1883  -1.1261  -1.0170  -1.0004  -0.8821  -0.7172  -0.7110  -0.6300
     4.6846   4.8584   5.0580   5.2355   5.5496   5.6599

          k = 0.1994 0.3205 0.4926 ( 21750 PWs)   bands (ev):

   -24.9900 -24.9887 -24.9874 -24.9867  -9.1963  -9.1924  -9.1723  -9.1631
    -9.1413  -9.1237  -9.1078  -9.0943  -9.0847  -9.0800  -9.0667  -9.0603
    -4.6500  -4.4897  -4.1810  -4.1178  -1.6510  -1.5041  -1.4729  -1.3276
    -1.1735  -1.0862  -1.0520  -0.9950  -0.8690  -0.7634  -0.6802  -0.6450
     4.8236   4.9036   5.1442   5.3861   5.5053   5.6651

          k = 0.1994 0.6410 0.0000 ( 21733 PWs)   bands (ev):

   -24.9899 -24.9883 -24.9875 -24.9866  -9.1835  -9.1762  -9.1707  -9.1568
    -9.1345  -9.1292  -9.1243  -9.1043  -9.0997  -9.0889  -9.0731  -9.0646
    -4.5836  -4.3430  -4.3113  -4.2073  -1.5570  -1.5096  -1.3920  -1.3491
    -1.2233  -1.0780  -1.0045  -0.9527  -0.8990  -0.8822  -0.8187  -0.7283
     4.7059   5.0388   5.3564   5.5278   5.7747   5.9893

          k = 0.1994 0.6410 0.2463 ( 21723 PWs)   bands (ev):

   -24.9897 -24.9884 -24.9874 -24.9867  -9.1993  -9.1860  -9.1714  -9.1643
    -9.1517  -9.1282  -9.1088  -9.0978  -9.0903  -9.0767  -9.0714  -9.0658
    -4.5379  -4.3376  -4.2856  -4.1988  -1.6829  -1.5639  -1.4523  -1.3618
    -1.2089  -1.0940  -1.0283  -0.9609  -0.8941  -0.8375  -0.7763  -0.6624
     4.8242   5.0197   5.3990   5.5304   5.5989   5.7948

          k = 0.1994 0.6410 0.4926 ( 21723 PWs)   bands (ev):

   -24.9893 -24.9889 -24.9872 -24.9869  -9.2145  -9.2084  -9.1712  -9.1682
    -9.1591  -9.1438  -9.0890  -9.0831  -9.0791  -9.0705  -9.0679  -9.0667
    -4.4357  -4.3556  -4.2308  -4.1962  -1.8087  -1.7469  -1.4183  -1.3407
    -1.2950  -1.1986  -1.0071  -0.9743  -0.8595  -0.7809  -0.6825  -0.6251
     5.0367   5.0744   5.3113   5.5614   5.7938   5.8512

          k = 0.3988 0.0000 0.0000 ( 21792 PWs)   bands (ev):

   -24.9910 -24.9898 -24.9863 -24.9860  -9.1858  -9.1789  -9.1623  -9.1493
    -9.1359  -9.1212  -9.1077  -9.0934  -9.0923  -9.0809  -9.0671  -9.0632
    -4.8534  -4.6565  -4.1482  -4.0778  -1.5866  -1.4226  -1.3239  -1.1434
    -1.1248  -1.0675  -1.0125  -0.9326  -0.7983  -0.7683  -0.6879  -0.6390
     4.5679   4.7029   4.8460   5.1088   5.3205   5.4215

          k = 0.3988 0.0000 0.2463 ( 21776 PWs)   bands (ev):

   -24.9906 -24.9895 -24.9868 -24.9863  -9.1880  -9.1793  -9.1514  -9.1448
    -9.1325  -9.1268  -9.1095  -9.0986  -9.0950  -9.0946  -9.0658  -9.0601
    -4.7928  -4.6165  -4.1759  -4.1015  -1.5921  -1.4504  -1.2869  -1.1414
    -1.1003  -1.0465  -1.0152  -0.9392  -0.8309  -0.7992  -0.7516  -0.6893
     4.6229   4.7455   4.9920   5.1866   5.2059   5.2364

          k = 0.3988 0.0000 0.4926 ( 21729 PWs)   bands (ev):

   -24.9896 -24.9889 -24.9875 -24.9871  -9.1848  -9.1758  -9.1487  -9.1353
    -9.1339  -9.1269  -9.1137  -9.1071  -9.1062  -9.1031  -9.0640  -9.0611
    -4.6521  -4.5645  -4.2214  -4.1725  -1.5485  -1.4669  -1.2795  -1.1826
    -1.0361  -1.0003  -0.9994  -0.9573  -0.8981  -0.8708  -0.8304  -0.7907
     4.7277   4.8105   5.2232   5.2748   5.3330   5.4672

          k = 0.3988 0.3205 0.0000 ( 21753 PWs)   bands (ev):

   -24.9904 -24.9893 -24.9867 -24.9863  -9.1757  -9.1682  -9.1601  -9.1569
    -9.1419  -9.1259  -9.1187  -9.1068  -9.0904  -9.0756  -9.0737  -9.0706
    -4.7545  -4.5902  -4.1672  -4.1157  -1.5461  -1.3830  -1.2921  -1.2825
    -1.2038  -1.1135  -1.0596  -0.9268  -0.8301  -0.8156  -0.7260  -0.6782
     4.5778   4.7166   5.1823   5.1828   5.4517   5.5029

[...]
     c_bands:  5 eigenvalues not converged
     c_bands:  3 eigenvalues not converged
     c_bands:  3 eigenvalues not converged
     c_bands:  2 eigenvalues not converged
     c_bands:  2 eigenvalues not converged
     c_bands:  3 eigenvalues not converged
     c_bands:  4 eigenvalues not converged
     ethr =  1.00E-06,  avg # of iterations = 20.0

     total cpu time spent up to now is      694.8 secs

     total energy              =    -372.57894328 Ry
     estimated scf accuracy    <       1.40490112 Ry

     iteration #  2     ecut=    60.00 Ry     beta= 0.70
     Davidson diagonalization with overlap
     ethr =  2.20E-03,  avg # of iterations =  2.0

     total cpu time spent up to now is      700.3 secs

     total energy              =    -372.73642999 Ry
     estimated scf accuracy    <       0.01294987 Ry

     iteration #  3     ecut=    60.00 Ry     beta= 0.70
     Davidson diagonalization with overlap
     ethr =  2.02E-05,  avg # of iterations =  7.3

     total cpu time spent up to now is      708.2 secs

     total energy              =    -372.74019921 Ry
     estimated scf accuracy    <       0.00071088 Ry

     iteration #  4     ecut=    60.00 Ry     beta= 0.70
     Davidson diagonalization with overlap
     ethr =  1.11E-06,  avg # of iterations =  8.9

     total cpu time spent up to now is      716.2 secs

     total energy              =    -372.74050504 Ry
     estimated scf accuracy    <       0.00008722 Ry

     iteration #  5     ecut=    60.00 Ry     beta= 0.70
     Davidson diagonalization with overlap
     ethr =  1.36E-07,  avg # of iterations =  2.4

     total cpu time spent up to now is      721.8 secs

     total energy              =    -372.74052864 Ry
     estimated scf accuracy    <       0.00000551 Ry

     iteration #  6     ecut=    60.00 Ry     beta= 0.70
     Davidson diagonalization with overlap
     ethr =  8.62E-09,  avg # of iterations =  2.2

     total cpu time spent up to now is      727.4 secs

     total energy              =    -372.74052971 Ry
     estimated scf accuracy    <       0.00000053 Ry

     iteration #  7     ecut=    60.00 Ry     beta= 0.70
     Davidson diagonalization with overlap
     ethr =  8.25E-10,  avg # of iterations =  3.7

     total cpu time spent up to now is      733.5 secs

     total energy              =    -372.74052988 Ry
     estimated scf accuracy    <       0.00000005 Ry

     iteration #  8     ecut=    60.00 Ry     beta= 0.70
     Davidson diagonalization with overlap
     ethr =  7.60E-11,  avg # of iterations =  2.4

     total cpu time spent up to now is      739.1 secs

     total energy              =    -372.74052989 Ry
     estimated scf accuracy    <          8.7E-10 Ry

     iteration #  9     ecut=    60.00 Ry     beta= 0.70
     Davidson diagonalization with overlap
     ethr =  1.35E-12,  avg # of iterations =  4.9

     total cpu time spent up to now is      746.8 secs

     total energy              =    -372.74052989 Ry
     estimated scf accuracy    <          3.6E-10 Ry

     iteration # 10     ecut=    60.00 Ry     beta= 0.70
     Davidson diagonalization with overlap
     ethr =  5.60E-13,  avg # of iterations =  2.0

     total cpu time spent up to now is      752.3 secs

     End of self-consistent calculation

          k = 0.0000 0.0000 0.0000 ( 22761 PWs)   bands (ev):

   -25.2719 -25.2687 -25.2675 -25.2666  -9.4656  -9.4250  -9.4250  -9.4247
    -9.4145  -9.3865  -9.3675  -9.3662  -9.3509  -9.3389  -9.3345  -9.3299
    -5.1615  -4.5634  -4.4052  -4.2078  -1.9317  -1.6556  -1.3550  -1.3279
    -1.3228  -1.2952  -1.1979  -1.0255  -0.9892  -0.9394  -0.8884  -0.7301
     4.4552   4.5223   4.9370   4.9838   4.9860   5.3017

          k = 0.0000 0.0000 0.2433 ( 22778 PWs)   bands (ev):

   -25.2715 -25.2684 -25.2680 -25.2667  -9.4685  -9.4259  -9.4222  -9.4201
    -9.4081  -9.3838  -9.3763  -9.3648  -9.3511  -9.3456  -9.3396  -9.3303
    -5.0941  -4.5969  -4.3886  -4.2152  -1.9288  -1.6294  -1.4870  -1.3290
    -1.2721  -1.1822  -1.1752  -1.0559  -1.0055  -0.9908  -0.9665  -0.7586
     4.4710   4.6047   4.7746   5.0211   5.0816   5.3616

          k = 0.0000 0.0000 0.4866 ( 22756 PWs)   bands (ev):

   -25.2705 -25.2692 -25.2679 -25.2672  -9.4646  -9.4479  -9.4075  -9.4046
    -9.3913  -9.3815  -9.3776  -9.3769  -9.3692  -9.3567  -9.3373  -9.3322
    -4.9227  -4.7271  -4.3249  -4.2527  -1.8605  -1.6919  -1.5073  -1.2776
    -1.2591  -1.1784  -1.1644  -1.1180  -1.0902  -1.0315  -0.9509  -0.8457
     4.4159   4.5217   4.9851   5.3369   5.3546   5.3989

          k = 0.0000 0.3162 0.0000 ( 22795 PWs)   bands (ev):

   -25.2714 -25.2684 -25.2679 -25.2668  -9.4589  -9.4346  -9.4195  -9.4169
    -9.4116  -9.3875  -9.3857  -9.3721  -9.3510  -9.3422  -9.3408  -9.3308
    -5.0445  -4.5453  -4.4081  -4.2586  -1.8717  -1.5929  -1.5030  -1.4010
    -1.3337  -1.2598  -1.2299  -1.1307  -1.0225  -0.9582  -0.8499  -0.7995
     4.6314   4.6589   4.6592   5.0507   5.3175   5.3687

          k = 0.0000 0.3162 0.2433 ( 22768 PWs)   bands (ev):

   -25.2711 -25.2683 -25.2682 -25.2669  -9.4587  -9.4426  -9.4274  -9.4111
    -9.4013  -9.3999  -9.3776  -9.3735  -9.3504  -9.3428  -9.3408  -9.3314
    -4.9830  -4.5651  -4.3946  -4.2614  -1.8561  -1.6916  -1.4761  -1.3674
    -1.3553  -1.2989  -1.2196  -1.1739  -1.0630  -0.9158  -0.8295  -0.8212
     4.6609   4.7200   4.7351   5.1018   5.2496   5.3596

          k = 0.0000 0.3162 0.4866 ( 22735 PWs)   bands (ev):

   -25.2703 -25.2692 -25.2678 -25.2672  -9.4548  -9.4430  -9.4420  -9.4259
    -9.4017  -9.3863  -9.3760  -9.3611  -9.3568  -9.3492  -9.3374  -9.3335
    -4.8295  -4.6632  -4.3422  -4.2858  -1.7800  -1.6994  -1.6242  -1.5416
    -1.3309  -1.2612  -1.2162  -1.1551  -1.0486  -0.9455  -0.8346  -0.8169
     4.6583   4.7291   4.9778   5.2275   5.4638   5.5165

          k = 0.0000 0.6324 0.0000 ( 22750 PWs)   bands (ev):

   -25.2703 -25.2689 -25.2678 -25.2672  -9.4462  -9.4377  -9.4329  -9.4193
    -9.3983  -9.3896  -9.3830  -9.3809  -9.3655  -9.3596  -9.3396  -9.3342
    -4.7636  -4.5029  -4.4833  -4.3745  -1.7343  -1.6843  -1.5748  -1.5096
    -1.4030  -1.2540  -1.1349  -1.1300  -1.0821  -1.0755  -0.9532  -0.8780
     4.5913   4.8277   5.2735   5.2759   5.4681   5.5652

          k = 0.0000 0.6324 0.2433 ( 22773 PWs)   bands (ev):

   -25.2701 -25.2690 -25.2678 -25.2673  -9.4560  -9.4424  -9.4382  -9.4280
    -9.4081  -9.3889  -9.3813  -9.3648  -9.3629  -9.3483  -9.3383  -9.3346
    -4.7207  -4.5102  -4.4528  -4.3679  -1.8413  -1.7446  -1.6265  -1.5350
    -1.3151  -1.2881  -1.1932  -1.1240  -1.0959  -1.0300  -0.9138  -0.8194
     4.7481   4.9149   5.1178   5.1534   5.4629   5.4702

          k = 0.0000 0.6324 0.4866 ( 22785 PWs)   bands (ev):

   -25.2698 -25.2694 -25.2676 -25.2674  -9.4681  -9.4625  -9.4310  -9.4306
    -9.4190  -9.4068  -9.3623  -9.3579  -9.3480  -9.3421  -9.3362  -9.3352
    -4.6231  -4.5409  -4.3999  -4.3675  -1.9661  -1.9084  -1.5781  -1.4993
    -1.3905  -1.3714  -1.2079  -1.1652  -1.0457  -0.9686  -0.8308  -0.7827
     4.9554   4.9972   5.1820   5.1953   5.4505   5.5714

          k = 0.1972 0.0000 0.0000 ( 22792 PWs)   bands (ev):

   -25.2716 -25.2690 -25.2674 -25.2667  -9.4559  -9.4315  -9.4281  -9.4216
    -9.3988  -9.3913  -9.3668  -9.3652  -9.3570  -9.3430  -9.3356  -9.3353
    -5.1148  -4.6384  -4.3855  -4.2211  -1.8671  -1.6125  -1.4283  -1.3403
    -1.2794  -1.2430  -1.2133  -1.0344  -1.0174  -0.9478  -0.8919  -0.7604
     4.4438   4.5180   4.7845   4.9631   5.0919   5.1963

          k = 0.1972 0.0000 0.2433 ( 22797 PWs)   bands (ev):

   -25.2713 -25.2688 -25.2678 -25.2668  -9.4598  -9.4323  -9.4172  -9.4159
    -9.4029  -9.3890  -9.3736  -9.3652  -9.3540  -9.3533  -9.3436  -9.3306
    -5.0505  -4.6392  -4.3935  -4.2341  -1.8667  -1.5959  -1.4841  -1.3151
    -1.2831  -1.1960  -1.1706  -1.0609  -1.0480  -0.9754  -0.9663  -0.7953
     4.4524   4.6655   4.7558   4.8908   5.0708   5.2820

          k = 0.1972 0.0000 0.4866 ( 22769 PWs)   bands (ev):

   -25.2703 -25.2691 -25.2680 -25.2673  -9.4570  -9.4426  -9.4054  -9.4054
    -9.3913  -9.3845  -9.3796  -9.3778  -9.3705  -9.3627  -9.3386  -9.3329
    -4.8893  -4.7171  -4.3606  -4.2842  -1.8054  -1.6522  -1.4920  -1.2902
    -1.2475  -1.1770  -1.1761  -1.1151  -1.0941  -1.0414  -0.9756  -0.8852
     4.4604   4.5793   5.0350   5.1105   5.2389   5.3377

          k = 0.1972 0.3162 0.0000 ( 22762 PWs)   bands (ev):

   -25.2712 -25.2688 -25.2678 -25.2668  -9.4498  -9.4314  -9.4260  -9.4150
    -9.4037  -9.3926  -9.3853  -9.3688  -9.3536  -9.3493  -9.3417  -9.3352
    -5.0047  -4.6062  -4.3929  -4.2685  -1.8156  -1.5535  -1.4873  -1.3768
    -1.3740  -1.3228  -1.2062  -1.1042  -1.0249  -0.9484  -0.9102  -0.8171
     4.4542   4.6558   4.8695   5.0077   5.3594   5.4519

          k = 0.1972 0.3162 0.2433 ( 22766 PWs)   bands (ev):

   -25.2709 -25.2686 -25.2681 -25.2670  -9.4508  -9.4425  -9.4212  -9.4143
    -9.4007  -9.3974  -9.3806  -9.3739  -9.3507  -9.3477  -9.3445  -9.3340
    -4.9462  -4.6023  -4.3959  -4.2751  -1.8192  -1.6354  -1.4853  -1.3897
    -1.3556  -1.2978  -1.1941  -1.1737  -1.0678  -0.9143  -0.8989  -0.8253
     4.5362   4.6938   4.8995   5.0155   5.3503   5.4051

          k = 0.1972 0.3162 0.4866 ( 22774 PWs)   bands (ev):

   -25.2701 -25.2691 -25.2680 -25.2674  -9.4500  -9.4465  -9.4300  -9.4224
    -9.4047  -9.3901  -9.3757  -9.3648  -9.3564  -9.3526  -9.3404  -9.3349
    -4.8024  -4.6574  -4.3672  -4.3084  -1.7815  -1.6463  -1.6209  -1.4863
    -1.3458  -1.2618  -1.2223  -1.1653  -1.0484  -0.9497  -0.8748  -0.8413
     4.6728   4.7429   4.9608   5.1676   5.2799   5.4499

          k = 0.1972 0.6324 0.0000 ( 22757 PWs)   bands (ev):

   -25.2700 -25.2687 -25.2681 -25.2674  -9.4397  -9.4343  -9.4290  -9.4176
    -9.3978  -9.3932  -9.3904  -9.3733  -9.3682  -9.3600  -9.3456  -9.3384
    -4.7400  -4.5150  -4.4910  -4.3860  -1.6967  -1.6591  -1.5429  -1.5090
    -1.3890  -1.2480  -1.1784  -1.1384  -1.0785  -1.0713  -0.9921  -0.9175
     4.5579   4.8765   5.1636   5.2992   5.5478   5.7610

          k = 0.1972 0.6324 0.2433 ( 22765 PWs)   bands (ev):

   -25.2699 -25.2689 -25.2680 -25.2674  -9.4534  -9.4419  -9.4295  -9.4234
    -9.4128  -9.3933  -9.3763  -9.3675  -9.3612  -9.3496  -9.3442  -9.3394
    -4.6994  -4.5147  -4.4649  -4.3797  -1.8183  -1.7056  -1.6035  -1.5176
    -1.3739  -1.2614  -1.2051  -1.1381  -1.0764  -1.0255  -0.9540  -0.8554
     4.6681   4.8480   5.2233   5.3191   5.3714   5.5751

          k = 0.1972 0.6324 0.4866 ( 22798 PWs)   bands (ev):

   -25.2696 -25.2692 -25.2678 -25.2676  -9.4659  -9.4606  -9.4291  -9.4269
    -9.4189  -9.4063  -9.3599  -9.3551  -9.3516  -9.3439  -9.3415  -9.3405
    -4.6084  -4.5355  -4.4133  -4.3800  -1.9354  -1.8786  -1.5666  -1.5009
    -1.4524  -1.3631  -1.1798  -1.1475  -1.0413  -0.9688  -0.8704  -0.8190
     4.8661   4.8973   5.1329   5.3646   5.5615   5.6259

          k = 0.3944 0.0000 0.0000 ( 22780 PWs)   bands (ev):

   -25.2709 -25.2699 -25.2671 -25.2668  -9.4413  -9.4350  -9.4198  -9.4132
    -9.4019  -9.3854  -9.3749  -9.3654  -9.3645  -9.3520  -9.3410  -9.3376
    -4.9859  -4.8077  -4.3329  -4.2680  -1.7237  -1.5715  -1.4803  -1.3068
    -1.3016  -1.2531  -1.1731  -1.0996  -0.9961  -0.9695  -0.8886  -0.8360
     4.4165   4.5427   4.6958   4.9506   5.0842   5.1962

          k = 0.3944 0.0000 0.2433 ( 22771 PWs)   bands (ev):

   -25.2706 -25.2696 -25.2675 -25.2671  -9.4426  -9.4347  -9.4113  -9.4094
    -9.3990  -9.3905  -9.3760  -9.3699  -9.3668  -9.3635  -9.3400  -9.3349
    -4.9313  -4.7721  -4.3588  -4.2909  -1.7273  -1.5968  -1.4453  -1.3055
    -1.2784  -1.2328  -1.1772  -1.1072  -1.0264  -0.9985  -0.9446  -0.8804
     4.4690   4.5742   4.8357   4.9681   4.9872   5.0721

          k = 0.3944 0.0000 0.4866 ( 22810 PWs)   bands (ev):

   -25.2698 -25.2692 -25.2681 -25.2677  -9.4391  -9.4312  -9.4095  -9.4000
    -9.3976  -9.3940  -9.3798  -9.3773  -9.3738  -9.3732  -9.3384  -9.3358
    -4.8050  -4.7266  -4.4003  -4.3567  -1.6868  -1.6125  -1.4349  -1.3432
    -1.2182  -1.1876  -1.1703  -1.1295  -1.0896  -1.0658  -1.0072  -0.9687
     4.5623   4.6338   4.9987   5.0568   5.1627   5.2915

          k = 0.3944 0.3162 0.0000 ( 22784 PWs)   bands (ev):

   -25.2705 -25.2696 -25.2674 -25.2671  -9.4331  -9.4262  -9.4190  -9.4185
    -9.4060  -9.3906  -9.3852  -9.3747  -9.3617  -9.3479  -9.3469  -9.3440
    -4.8953  -4.7458  -4.3526  -4.3035  -1.6837  -1.5306  -1.4565  -1.4500
    -1.3686  -1.2814  -1.2264  -1.1086  -1.0184  -0.9983  -0.9249  -0.8757
     4.4320   4.5620   5.0004   5.0051   5.2332   5.2756

          k = 0.3944 0.3162 0.2433 ( 22769 PWs)   bands (ev):

   -25.2702 -25.2694 -25.2677 -25.2673  -9.4405  -9.4347  -9.4186  -9.4062
    -9.4033  -9.3957  -9.3846  -9.3805  -9.3596  -9.3522  -9.3443  -9.3397
    -4.8460  -4.7132  -4.3678  -4.3169  -1.7250  -1.6011  -1.4958  -1.3857
    -1.3339  -1.2805  -1.2065  -1.1616  -1.0666  -1.0103  -0.9018  -0.8709
     4.5149   4.6152   4.9620   5.0687   5.1961   5.2695

          k = 0.3944 0.3162 0.4866 ( 22787 PWs)   bands (ev):

   -25.2695 -25.2690 -25.2682 -25.2678  -9.4439  -9.4413  -9.4199  -9.4165
    -9.4017  -9.3910  -9.3848  -9.3763  -9.3582  -9.3568  -9.3409  -9.3382
    -4.7342  -4.6700  -4.3936  -4.3609  -1.7457  -1.6898  -1.4824  -1.4166
    -1.3327  -1.2618  -1.2529  -1.2066  -1.0427  -0.9962  -0.9111  -0.8908
     4.7350   4.7535   4.9089   5.0297   5.2308   5.3358

          k = 0.3944 0.6324 0.0000 ( 22744 PWs)   bands (ev):

   -25.2694 -25.2687 -25.2683 -25.2678  -9.4264  -9.4262  -9.4198  -9.4154
    -9.4040  -9.4015  -9.3895  -9.3788  -9.3633  -9.3591  -9.3549  -9.3499
    -4.6760  -4.5909  -4.4590  -4.4184  -1.6188  -1.6037  -1.5185  -1.5125
    -1.3393  -1.2540  -1.2016  -1.1359  -1.1174  -1.0797  -1.0524  -0.9999
     4.6244   4.8675   5.0058   5.2052   5.6920   5.7673

          k = 0.3944 0.6324 0.2433 ( 22772 PWs)   bands (ev):

   -25.2693 -25.2687 -25.2684 -25.2678  -9.4449  -9.4345  -9.4313  -9.4241
    -9.4021  -9.3903  -9.3794  -9.3749  -9.3575  -9.3539  -9.3505  -9.3500
    -4.6420  -4.5678  -4.4487  -4.4115  -1.7412  -1.6620  -1.5678  -1.5639
    -1.3367  -1.2510  -1.2169  -1.1596  -1.0825  -1.0540  -0.9840  -0.9285
     4.6893   4.8054   5.1123   5.1536   5.5912   5.7258

          k = 0.3944 0.6324 0.4866 ( 22797 PWs)   bands (ev):

   -25.2691 -25.2688 -25.2683 -25.2681  -9.4575  -9.4533  -9.4406  -9.4377
    -9.3959  -9.3895  -9.3697  -9.3652  -9.3518  -9.3496  -9.3463  -9.3443
    -4.5714  -4.5374  -4.4287  -4.4094  -1.8488  -1.8092  -1.6451  -1.6318
    -1.3307  -1.2834  -1.1894  -1.1747  -1.0278  -0.9942  -0.9177  -0.8860
     4.8461   4.9040   5.0010   5.1556   5.7207   5.7741

     the Fermi energy is     2.4036 ev

!    total energy              =    -372.74052989 Ry
     estimated scf accuracy    <          1.1E-11 Ry
     smearing contrib. (-TS)   =       0.00000000 Ry
     internal energy E=F+TS    =    -372.74052989 Ry

     The total energy is F=E-TS. E is the sum of the following terms:
     one-electron contribution =     -83.11687555 Ry
     hartree contribution      =      54.74406974 Ry
     xc contribution           =     -51.33957617 Ry
     ewald contribution        =    -154.23796126 Ry
     one-center paw contrib.   =    -138.79018666 Ry

     convergence has been achieved in  10 iterations

     Forces acting on atoms (cartesian axes, Ry/au):

     atom    1 type  1   force =     0.00021257   -0.00000000    0.00010933
     atom    2 type  1   force =    -0.00021257    0.00000000    0.00010933
     atom    3 type  1   force =    -0.00021257   -0.00000000   -0.00010933
     atom    4 type  1   force =     0.00021257    0.00000000   -0.00010933
     atom    5 type  3   force =    -0.00002777    0.00000000   -0.00012054
     atom    6 type  3   force =     0.00002777   -0.00000000   -0.00012054
     atom    7 type  3   force =     0.00002777    0.00000000    0.00012054
     atom    8 type  3   force =    -0.00002777   -0.00000000    0.00012054
     atom    9 type  2   force =    -0.00000233    0.00007880   -0.00002489
     atom   10 type  2   force =     0.00000233    0.00007880   -0.00002489
     atom   11 type  2   force =     0.00000233   -0.00007880   -0.00002489
     atom   12 type  2   force =     0.00000233    0.00007880    0.00002489
     atom   13 type  2   force =     0.00000233   -0.00007880    0.00002489
     atom   14 type  2   force =    -0.00000233   -0.00007880    0.00002489
     atom   15 type  2   force =    -0.00000233    0.00007880    0.00002489
     atom   16 type  2   force =    -0.00000233   -0.00007880   -0.00002489
     atom   17 type  2   force =     0.00009196    0.00000000    0.00034293
     atom   18 type  2   force =    -0.00009196    0.00000000    0.00034293
     atom   19 type  2   force =    -0.00009196    0.00000000   -0.00034293
     atom   20 type  2   force =     0.00009196   -0.00000000   -0.00034293
     atom   21 type  2   force =     0.00011135    0.00000000   -0.00019450
     atom   22 type  2   force =    -0.00011135    0.00000000   -0.00019450
     atom   23 type  2   force =    -0.00011135    0.00000000    0.00019450
     atom   24 type  2   force =     0.00011135    0.00000000    0.00019450

     Total force =     0.001024     Total SCF correction =     0.000002


     Computing stress (Cartesian axis) and pressure

          total   stress  (Ry/bohr**3)                   (kbar)     P=        0.00
  -0.00000080   0.00000000   0.00000000           -0.12        0.00        0.00
   0.00000000   0.00000187   0.00000000            0.00        0.28        0.00
   0.00000000   0.00000000  -0.00000105            0.00        0.00       -0.16


     Writing output data file ./RbAlH4.save/

     init_run     :     10.61s CPU     10.75s WALL (       2 calls)
     electrons    :    605.95s CPU    617.78s WALL (      12 calls)
     update_pot   :     34.99s CPU     35.15s WALL (      10 calls)
     forces       :     25.13s CPU     25.56s WALL (      12 calls)
     stress       :     62.48s CPU     63.46s WALL (      12 calls)

     Called by init_run:
     wfcinit      :      4.76s CPU      4.83s WALL (       2 calls)
     potinit      :      2.67s CPU      2.68s WALL (       2 calls)
     hinit0       :      2.84s CPU      2.84s WALL (       2 calls)

     Called by electrons:
     c_bands      :    496.96s CPU    503.05s WALL (     103 calls)
     sum_band     :     75.58s CPU     78.54s WALL (     103 calls)
     v_of_rho     :      2.61s CPU      2.63s WALL (     114 calls)
     newd         :      4.03s CPU      6.71s WALL (     114 calls)
     PAW_pot      :     33.11s CPU     33.25s WALL (     124 calls)
     mix_rho      :      0.28s CPU      0.28s WALL (     103 calls)

     Called by c_bands:
     init_us_2    :      7.55s CPU      7.99s WALL (    6534 calls)
     cegterg      :    478.65s CPU    483.17s WALL (    2781 calls)

     Called by *egterg:
     cdiaghg      :     24.00s CPU     24.36s WALL (   10353 calls)
     h_psi        :    353.58s CPU    357.13s WALL (   10704 calls)
     s_psi        :     25.82s CPU     25.99s WALL (   10704 calls)
     g_psi        :      0.78s CPU      0.79s WALL (    7869 calls)

     Called by h_psi:
     h_psi:calbec :     39.58s CPU     39.81s WALL (   10704 calls)
     vloc_psi     :    285.40s CPU    288.55s WALL (   10704 calls)
     add_vuspsi   :     27.74s CPU     27.90s WALL (   10704 calls)

     General routines
     calbec       :     63.63s CPU     64.01s WALL (   15375 calls)
     fft          :      2.06s CPU      2.08s WALL (    1565 calls)
     ffts         :      0.09s CPU      0.09s WALL (     103 calls)
     fftw         :    317.32s CPU    320.75s WALL (  687626 calls)

     Parallel routines

     PWSCF        :  12m26.43s CPU  12m40.91s WALL


   This run was terminated on:  16:27:23  23Nov2023            

=------------------------------------------------------------------------------=
   JOB DONE.
=------------------------------------------------------------------------------=
