
     Program PWSCF v.6.7MaX starts on 27Nov2023 at 17:13:16 

     This program is part of the open-source Quantum ESPRESSO suite
     for quantum simulation of materials; please cite
         "P. Giannozzi et al., J. Phys.:Condens. Matter 21 395502 (2009);
         "P. Giannozzi et al., J. Phys.:Condens. Matter 29 465901 (2017);
          URL http://www.quantum-espresso.org", 
     in publications or presentations arising from this work. More details at
     http://www.quantum-espresso.org/quote

     Parallel version (MPI), running on     8 processors

     MPI processes distributed on     1 nodes
     R & G space division:  proc/nbgrp/npool/nimage =       8
     Reading input from CsH_opt.in

     Current dimensions of program PWSCF are:
     Max number of different atomic species (ntypx) = 10
     Max number of k-points (npk) =  40000
     Max angular momentum in pseudopotentials (lmaxx) =  3

     IMPORTANT: XC functional enforced from input :
     Exchange-correlation= PBE
                           (   1   4   3   4   0   0   0)
     Any further DFT definition will be discarded
     Please, verify this is what you really want


     Subspace diagonalization in iterative solution of the eigenvalue problem:
     one sub-group per band group will be used
     scalapack distributed-memory algorithm (size of sub-group:  2*  2 procs)

     Found symmetry operation: I + (  0.0000 -0.5000 -0.5000)
     This is a supercell, fractional translations are disabled
     Message from routine setup:
     using ibrav=0 with symmetry is DISCOURAGED, use correct ibrav instead

     Parallelization info
     --------------------
     sticks:   dense  smooth     PW     G-vecs:    dense   smooth      PW
     Min         579     463    125                29615    21223    2983
     Max         580     464    126                29620    21228    2985
     Sum        4637    3705   1005               236937   169797   23871



     bravais-lattice index     =            0
     lattice parameter (alat)  =      12.0612  a.u.
     unit-cell volume          =    1754.5717 (a.u.)^3
     number of atoms/cell      =            8
     number of atomic types    =            2
     number of electrons       =        40.00
     number of Kohn-Sham states=           24
     kinetic-energy cutoff     =      80.0000  Ry
     charge density cutoff     =     400.0000  Ry
     scf convergence threshold =      1.0E-08
     mixing beta               =       0.7000
     number of iterations used =            8  plain     mixing
     energy convergence thresh.=      1.0E-04
     force convergence thresh. =      1.0E-03
     press convergence thresh. =      5.0E-01
     Exchange-correlation= PBE
                           (   1   4   3   4   0   0   0)
     nstep                     =           50


     celldm(1)=  12.061196  celldm(2)=   0.000000  celldm(3)=   0.000000
     celldm(4)=   0.000000  celldm(5)=   0.000000  celldm(6)=   0.000000

     crystal axes: (cart. coord. in units of alat)
               a(1) = (   1.000000   0.000000   0.000000 )  
               a(2) = (   0.000000   1.000000   0.000000 )  
               a(3) = (   0.000000   0.000000   1.000000 )  

     reciprocal axes: (cart. coord. in units 2 pi/alat)
               b(1) = (  1.000000  0.000000  0.000000 )  
               b(2) = (  0.000000  1.000000  0.000000 )  
               b(3) = (  0.000000  0.000000  1.000000 )  


     PseudoPot. # 1 for H  read from file:
     /home/thibautdhomme/PseudoLib/H.pbe-rrkjus_psl.1.0.0.UPF
     MD5 check sum: f52b6d4d1c606e5624b1dc7b2218f220
     Pseudo is Ultrasoft, Zval =  1.0
     Generated using "atomic" code by A. Dal Corso  v.5.1
     Using radial grid of  929 points,  2 beta functions with: 
                l(1) =   0
                l(2) =   0
     Q(r) pseudized with 0 coefficients 


     PseudoPot. # 2 for Cs read from file:
     /home/thibautdhomme/PseudoLib/Cs_pbe_v1.uspp.F.UPF
     MD5 check sum: 3476d69cb178dfad3ffaa59df4e07ca4
     Pseudo is Ultrasoft + core correction, Zval =  9.0
     Generated by new atomic code, or converted to UPF format
     Using radial grid of  905 points,  6 beta functions with: 
                l(1) =   0
                l(2) =   0
                l(3) =   1
                l(4) =   1
                l(5) =   2
                l(6) =   2
     Q(r) pseudized with  6 coefficients,  rinner =    1.500   1.500   1.500
                                                       1.500   1.500

     atomic species   valence    mass     pseudopotential
        H              1.00     1.00750     H ( 1.00)
        Cs             9.00   132.90500     Cs( 1.00)

     48 Sym. Ops., with inversion, found


                                    s                        frac. trans.

      isym =  1     identity                                     

 cryst.   s( 1) = (     1          0          0      )
                  (     0          1          0      )
                  (     0          0          1      )

 cart.    s( 1) = (  1.0000000  0.0000000  0.0000000 )
                  (  0.0000000  1.0000000  0.0000000 )
                  (  0.0000000  0.0000000  1.0000000 )


      isym =  2     180 deg rotation - cart. axis [0,0,1]        

 cryst.   s( 2) = (    -1          0          0      )
                  (     0         -1          0      )
                  (     0          0          1      )

 cart.    s( 2) = ( -1.0000000  0.0000000  0.0000000 )
                  (  0.0000000 -1.0000000  0.0000000 )
                  (  0.0000000  0.0000000  1.0000000 )


      isym =  3     180 deg rotation - cart. axis [0,1,0]        

 cryst.   s( 3) = (    -1          0          0      )
                  (     0          1          0      )
                  (     0          0         -1      )

 cart.    s( 3) = ( -1.0000000  0.0000000  0.0000000 )
                  (  0.0000000  1.0000000  0.0000000 )
                  (  0.0000000  0.0000000 -1.0000000 )


      isym =  4     180 deg rotation - cart. axis [1,0,0]        

 cryst.   s( 4) = (     1          0          0      )
                  (     0         -1          0      )
                  (     0          0         -1      )

 cart.    s( 4) = (  1.0000000  0.0000000  0.0000000 )
                  (  0.0000000 -1.0000000  0.0000000 )
                  (  0.0000000  0.0000000 -1.0000000 )


      isym =  5     180 deg rotation - cart. axis [1,1,0]        

 cryst.   s( 5) = (     0          1          0      )
                  (     1          0          0      )
                  (     0          0         -1      )

 cart.    s( 5) = (  0.0000000  1.0000000  0.0000000 )
                  (  1.0000000  0.0000000  0.0000000 )
                  (  0.0000000  0.0000000 -1.0000000 )


      isym =  6     180 deg rotation - cart. axis [1,-1,0]       

 cryst.   s( 6) = (     0         -1          0      )
                  (    -1          0          0      )
                  (     0          0         -1      )

 cart.    s( 6) = (  0.0000000 -1.0000000  0.0000000 )
                  ( -1.0000000  0.0000000  0.0000000 )
                  (  0.0000000  0.0000000 -1.0000000 )


      isym =  7      90 deg rotation - cart. axis [0,0,-1]       

 cryst.   s( 7) = (     0         -1          0      )
                  (     1          0          0      )
                  (     0          0          1      )

 cart.    s( 7) = (  0.0000000  1.0000000  0.0000000 )
                  ( -1.0000000  0.0000000  0.0000000 )
                  (  0.0000000  0.0000000  1.0000000 )


      isym =  8      90 deg rotation - cart. axis [0,0,1]        

 cryst.   s( 8) = (     0          1          0      )
                  (    -1          0          0      )
                  (     0          0          1      )

 cart.    s( 8) = (  0.0000000 -1.0000000  0.0000000 )
                  (  1.0000000  0.0000000  0.0000000 )
                  (  0.0000000  0.0000000  1.0000000 )


      isym =  9     180 deg rotation - cart. axis [1,0,1]        

 cryst.   s( 9) = (     0          0          1      )
                  (     0         -1          0      )
                  (     1          0          0      )

 cart.    s( 9) = (  0.0000000  0.0000000  1.0000000 )
                  (  0.0000000 -1.0000000  0.0000000 )
                  (  1.0000000  0.0000000  0.0000000 )


      isym = 10     180 deg rotation - cart. axis [-1,0,1]       

 cryst.   s(10) = (     0          0         -1      )
                  (     0         -1          0      )
                  (    -1          0          0      )

 cart.    s(10) = (  0.0000000  0.0000000 -1.0000000 )
                  (  0.0000000 -1.0000000  0.0000000 )
                  ( -1.0000000  0.0000000  0.0000000 )


      isym = 11      90 deg rotation - cart. axis [0,1,0]        

 cryst.   s(11) = (     0          0         -1      )
                  (     0          1          0      )
                  (     1          0          0      )

 cart.    s(11) = (  0.0000000  0.0000000  1.0000000 )
                  (  0.0000000  1.0000000  0.0000000 )
                  ( -1.0000000  0.0000000  0.0000000 )


      isym = 12      90 deg rotation - cart. axis [0,-1,0]       

 cryst.   s(12) = (     0          0          1      )
                  (     0          1          0      )
                  (    -1          0          0      )

 cart.    s(12) = (  0.0000000  0.0000000 -1.0000000 )
                  (  0.0000000  1.0000000  0.0000000 )
                  (  1.0000000  0.0000000  0.0000000 )


      isym = 13     180 deg rotation - cart. axis [0,1,1]        

 cryst.   s(13) = (    -1          0          0      )
                  (     0          0          1      )
                  (     0          1          0      )

 cart.    s(13) = ( -1.0000000  0.0000000  0.0000000 )
                  (  0.0000000  0.0000000  1.0000000 )
                  (  0.0000000  1.0000000  0.0000000 )


      isym = 14     180 deg rotation - cart. axis [0,1,-1]       

 cryst.   s(14) = (    -1          0          0      )
                  (     0          0         -1      )
                  (     0         -1          0      )

 cart.    s(14) = ( -1.0000000  0.0000000  0.0000000 )
                  (  0.0000000  0.0000000 -1.0000000 )
                  (  0.0000000 -1.0000000  0.0000000 )


      isym = 15      90 deg rotation - cart. axis [-1,0,0]       

 cryst.   s(15) = (     1          0          0      )
                  (     0          0         -1      )
                  (     0          1          0      )

 cart.    s(15) = (  1.0000000  0.0000000  0.0000000 )
                  (  0.0000000  0.0000000  1.0000000 )
                  (  0.0000000 -1.0000000  0.0000000 )


      isym = 16      90 deg rotation - cart. axis [1,0,0]        

 cryst.   s(16) = (     1          0          0      )
                  (     0          0          1      )
                  (     0         -1          0      )

 cart.    s(16) = (  1.0000000  0.0000000  0.0000000 )
                  (  0.0000000  0.0000000 -1.0000000 )
                  (  0.0000000  1.0000000  0.0000000 )


      isym = 17     120 deg rotation - cart. axis [-1,-1,-1]     

 cryst.   s(17) = (     0          0          1      )
                  (     1          0          0      )
                  (     0          1          0      )

 cart.    s(17) = (  0.0000000  1.0000000  0.0000000 )
                  (  0.0000000  0.0000000  1.0000000 )
                  (  1.0000000  0.0000000  0.0000000 )


      isym = 18     120 deg rotation - cart. axis [-1,1,1]       

 cryst.   s(18) = (     0          0         -1      )
                  (    -1          0          0      )
                  (     0          1          0      )

 cart.    s(18) = (  0.0000000 -1.0000000  0.0000000 )
                  (  0.0000000  0.0000000  1.0000000 )
                  ( -1.0000000  0.0000000  0.0000000 )


      isym = 19     120 deg rotation - cart. axis [1,1,-1]       

 cryst.   s(19) = (     0          0         -1      )
                  (     1          0          0      )
                  (     0         -1          0      )

 cart.    s(19) = (  0.0000000  1.0000000  0.0000000 )
                  (  0.0000000  0.0000000 -1.0000000 )
                  ( -1.0000000  0.0000000  0.0000000 )


      isym = 20     120 deg rotation - cart. axis [1,-1,1]       

 cryst.   s(20) = (     0          0          1      )
                  (    -1          0          0      )
                  (     0         -1          0      )

 cart.    s(20) = (  0.0000000 -1.0000000  0.0000000 )
                  (  0.0000000  0.0000000 -1.0000000 )
                  (  1.0000000  0.0000000  0.0000000 )


      isym = 21     120 deg rotation - cart. axis [1,1,1]        

 cryst.   s(21) = (     0          1          0      )
                  (     0          0          1      )
                  (     1          0          0      )

 cart.    s(21) = (  0.0000000  0.0000000  1.0000000 )
                  (  1.0000000  0.0000000  0.0000000 )
                  (  0.0000000  1.0000000  0.0000000 )


      isym = 22     120 deg rotation - cart. axis [-1,1,-1]      

 cryst.   s(22) = (     0         -1          0      )
                  (     0          0         -1      )
                  (     1          0          0      )

 cart.    s(22) = (  0.0000000  0.0000000  1.0000000 )
                  ( -1.0000000  0.0000000  0.0000000 )
                  (  0.0000000 -1.0000000  0.0000000 )


      isym = 23     120 deg rotation - cart. axis [1,-1,-1]      

 cryst.   s(23) = (     0         -1          0      )
                  (     0          0          1      )
                  (    -1          0          0      )

 cart.    s(23) = (  0.0000000  0.0000000 -1.0000000 )
                  ( -1.0000000  0.0000000  0.0000000 )
                  (  0.0000000  1.0000000  0.0000000 )


      isym = 24     120 deg rotation - cart. axis [-1,-1,1]      

 cryst.   s(24) = (     0          1          0      )
                  (     0          0         -1      )
                  (    -1          0          0      )

 cart.    s(24) = (  0.0000000  0.0000000 -1.0000000 )
                  (  1.0000000  0.0000000  0.0000000 )
                  (  0.0000000 -1.0000000  0.0000000 )


      isym = 25     inversion                                    

 cryst.   s(25) = (    -1          0          0      )
                  (     0         -1          0      )
                  (     0          0         -1      )

 cart.    s(25) = ( -1.0000000  0.0000000  0.0000000 )
                  (  0.0000000 -1.0000000  0.0000000 )
                  (  0.0000000  0.0000000 -1.0000000 )


      isym = 26     inv. 180 deg rotation - cart. axis [0,0,1]   

 cryst.   s(26) = (     1          0          0      )
                  (     0          1          0      )
                  (     0          0         -1      )

 cart.    s(26) = (  1.0000000  0.0000000  0.0000000 )
                  (  0.0000000  1.0000000  0.0000000 )
                  (  0.0000000  0.0000000 -1.0000000 )


      isym = 27     inv. 180 deg rotation - cart. axis [0,1,0]   

 cryst.   s(27) = (     1          0          0      )
                  (     0         -1          0      )
                  (     0          0          1      )

 cart.    s(27) = (  1.0000000  0.0000000  0.0000000 )
                  (  0.0000000 -1.0000000  0.0000000 )
                  (  0.0000000  0.0000000  1.0000000 )


      isym = 28     inv. 180 deg rotation - cart. axis [1,0,0]   

 cryst.   s(28) = (    -1          0          0      )
                  (     0          1          0      )
                  (     0          0          1      )

 cart.    s(28) = ( -1.0000000  0.0000000  0.0000000 )
                  (  0.0000000  1.0000000  0.0000000 )
                  (  0.0000000  0.0000000  1.0000000 )


      isym = 29     inv. 180 deg rotation - cart. axis [1,1,0]   

 cryst.   s(29) = (     0         -1          0      )
                  (    -1          0          0      )
                  (     0          0          1      )

 cart.    s(29) = (  0.0000000 -1.0000000  0.0000000 )
                  ( -1.0000000  0.0000000  0.0000000 )
                  (  0.0000000  0.0000000  1.0000000 )


      isym = 30     inv. 180 deg rotation - cart. axis [1,-1,0]  

 cryst.   s(30) = (     0          1          0      )
                  (     1          0          0      )
                  (     0          0          1      )

 cart.    s(30) = (  0.0000000  1.0000000  0.0000000 )
                  (  1.0000000  0.0000000  0.0000000 )
                  (  0.0000000  0.0000000  1.0000000 )


      isym = 31     inv.  90 deg rotation - cart. axis [0,0,-1]  

 cryst.   s(31) = (     0          1          0      )
                  (    -1          0          0      )
                  (     0          0         -1      )

 cart.    s(31) = (  0.0000000 -1.0000000  0.0000000 )
                  (  1.0000000  0.0000000  0.0000000 )
                  (  0.0000000  0.0000000 -1.0000000 )


      isym = 32     inv.  90 deg rotation - cart. axis [0,0,1]   

 cryst.   s(32) = (     0         -1          0      )
                  (     1          0          0      )
                  (     0          0         -1      )

 cart.    s(32) = (  0.0000000  1.0000000  0.0000000 )
                  ( -1.0000000  0.0000000  0.0000000 )
                  (  0.0000000  0.0000000 -1.0000000 )


      isym = 33     inv. 180 deg rotation - cart. axis [1,0,1]   

 cryst.   s(33) = (     0          0         -1      )
                  (     0          1          0      )
                  (    -1          0          0      )

 cart.    s(33) = (  0.0000000  0.0000000 -1.0000000 )
                  (  0.0000000  1.0000000  0.0000000 )
                  ( -1.0000000  0.0000000  0.0000000 )


      isym = 34     inv. 180 deg rotation - cart. axis [-1,0,1]  

 cryst.   s(34) = (     0          0          1      )
                  (     0          1          0      )
                  (     1          0          0      )

 cart.    s(34) = (  0.0000000  0.0000000  1.0000000 )
                  (  0.0000000  1.0000000  0.0000000 )
                  (  1.0000000  0.0000000  0.0000000 )


      isym = 35     inv.  90 deg rotation - cart. axis [0,1,0]   

 cryst.   s(35) = (     0          0          1      )
                  (     0         -1          0      )
                  (    -1          0          0      )

 cart.    s(35) = (  0.0000000  0.0000000 -1.0000000 )
                  (  0.0000000 -1.0000000  0.0000000 )
                  (  1.0000000  0.0000000  0.0000000 )


      isym = 36     inv.  90 deg rotation - cart. axis [0,-1,0]  

 cryst.   s(36) = (     0          0         -1      )
                  (     0         -1          0      )
                  (     1          0          0      )

 cart.    s(36) = (  0.0000000  0.0000000  1.0000000 )
                  (  0.0000000 -1.0000000  0.0000000 )
                  ( -1.0000000  0.0000000  0.0000000 )


      isym = 37     inv. 180 deg rotation - cart. axis [0,1,1]   

 cryst.   s(37) = (     1          0          0      )
                  (     0          0         -1      )
                  (     0         -1          0      )

 cart.    s(37) = (  1.0000000  0.0000000  0.0000000 )
                  (  0.0000000  0.0000000 -1.0000000 )
                  (  0.0000000 -1.0000000  0.0000000 )


      isym = 38     inv. 180 deg rotation - cart. axis [0,1,-1]  

 cryst.   s(38) = (     1          0          0      )
                  (     0          0          1      )
                  (     0          1          0      )

 cart.    s(38) = (  1.0000000  0.0000000  0.0000000 )
                  (  0.0000000  0.0000000  1.0000000 )
                  (  0.0000000  1.0000000  0.0000000 )


      isym = 39     inv.  90 deg rotation - cart. axis [-1,0,0]  

 cryst.   s(39) = (    -1          0          0      )
                  (     0          0          1      )
                  (     0         -1          0      )

 cart.    s(39) = ( -1.0000000  0.0000000  0.0000000 )
                  (  0.0000000  0.0000000 -1.0000000 )
                  (  0.0000000  1.0000000  0.0000000 )


      isym = 40     inv.  90 deg rotation - cart. axis [1,0,0]   

 cryst.   s(40) = (    -1          0          0      )
                  (     0          0         -1      )
                  (     0          1          0      )

 cart.    s(40) = ( -1.0000000  0.0000000  0.0000000 )
                  (  0.0000000  0.0000000  1.0000000 )
                  (  0.0000000 -1.0000000  0.0000000 )


      isym = 41     inv. 120 deg rotation - cart. axis [-1,-1,-1]

 cryst.   s(41) = (     0          0         -1      )
                  (    -1          0          0      )
                  (     0         -1          0      )

 cart.    s(41) = (  0.0000000 -1.0000000  0.0000000 )
                  (  0.0000000  0.0000000 -1.0000000 )
                  ( -1.0000000  0.0000000  0.0000000 )


      isym = 42     inv. 120 deg rotation - cart. axis [-1,1,1]  

 cryst.   s(42) = (     0          0          1      )
                  (     1          0          0      )
                  (     0         -1          0      )

 cart.    s(42) = (  0.0000000  1.0000000  0.0000000 )
                  (  0.0000000  0.0000000 -1.0000000 )
                  (  1.0000000  0.0000000  0.0000000 )


      isym = 43     inv. 120 deg rotation - cart. axis [1,1,-1]  

 cryst.   s(43) = (     0          0          1      )
                  (    -1          0          0      )
                  (     0          1          0      )

 cart.    s(43) = (  0.0000000 -1.0000000  0.0000000 )
                  (  0.0000000  0.0000000  1.0000000 )
                  (  1.0000000  0.0000000  0.0000000 )


      isym = 44     inv. 120 deg rotation - cart. axis [1,-1,1]  

 cryst.   s(44) = (     0          0         -1      )
                  (     1          0          0      )
                  (     0          1          0      )

 cart.    s(44) = (  0.0000000  1.0000000  0.0000000 )
                  (  0.0000000  0.0000000  1.0000000 )
                  ( -1.0000000  0.0000000  0.0000000 )


      isym = 45     inv. 120 deg rotation - cart. axis [1,1,1]   

 cryst.   s(45) = (     0         -1          0      )
                  (     0          0         -1      )
                  (    -1          0          0      )

 cart.    s(45) = (  0.0000000  0.0000000 -1.0000000 )
                  ( -1.0000000  0.0000000  0.0000000 )
                  (  0.0000000 -1.0000000  0.0000000 )


      isym = 46     inv. 120 deg rotation - cart. axis [-1,1,-1] 

 cryst.   s(46) = (     0          1          0      )
                  (     0          0          1      )
                  (    -1          0          0      )

 cart.    s(46) = (  0.0000000  0.0000000 -1.0000000 )
                  (  1.0000000  0.0000000  0.0000000 )
                  (  0.0000000  1.0000000  0.0000000 )


      isym = 47     inv. 120 deg rotation - cart. axis [1,-1,-1] 

 cryst.   s(47) = (     0          1          0      )
                  (     0          0         -1      )
                  (     1          0          0      )

 cart.    s(47) = (  0.0000000  0.0000000  1.0000000 )
                  (  1.0000000  0.0000000  0.0000000 )
                  (  0.0000000 -1.0000000  0.0000000 )


      isym = 48     inv. 120 deg rotation - cart. axis [-1,-1,1] 

 cryst.   s(48) = (     0         -1          0      )
                  (     0          0          1      )
                  (     1          0          0      )

 cart.    s(48) = (  0.0000000  0.0000000  1.0000000 )
                  ( -1.0000000  0.0000000  0.0000000 )
                  (  0.0000000  1.0000000  0.0000000 )


   Cartesian axes

     site n.     atom                  positions (alat units)
         1           Cs  tau(   1) = (   0.0000000   0.0000000   0.0000000  )
         2           Cs  tau(   2) = (   0.0000000   0.5000000   0.5000000  )
         3           Cs  tau(   3) = (   0.5000000   0.0000000   0.5000000  )
         4           Cs  tau(   4) = (   0.5000000   0.5000000   0.0000000  )
         5           H   tau(   5) = (   0.0000000   0.0000000   0.5000000  )
         6           H   tau(   6) = (   0.0000000   0.5000000   0.0000000  )
         7           H   tau(   7) = (   0.5000000   0.0000000   0.0000000  )
         8           H   tau(   8) = (   0.5000000   0.5000000   0.5000000  )

   Crystallographic axes

     site n.     atom                  positions (cryst. coord.)
         1           Cs  tau(   1) = (  0.0000000  0.0000000  0.0000000  )
         2           Cs  tau(   2) = (  0.0000000  0.5000000  0.5000000  )
         3           Cs  tau(   3) = (  0.5000000  0.0000000  0.5000000  )
         4           Cs  tau(   4) = (  0.5000000  0.5000000  0.0000000  )
         5           H   tau(   5) = (  0.0000000  0.0000000  0.5000000  )
         6           H   tau(   6) = (  0.0000000  0.5000000  0.0000000  )
         7           H   tau(   7) = (  0.5000000  0.0000000  0.0000000  )
         8           H   tau(   8) = (  0.5000000  0.5000000  0.5000000  )

     number of k points=    20  Marzari-Vanderbilt smearing, width (Ry)=  0.0050
                       cart. coord. in units 2pi/alat
        k(    1) = (   0.0000000   0.0000000   0.0000000), wk =   0.0058309
        k(    2) = (   0.0000000   0.0000000   0.1428571), wk =   0.0349854
        k(    3) = (   0.0000000   0.0000000   0.2857143), wk =   0.0349854
        k(    4) = (   0.0000000   0.0000000   0.4285714), wk =   0.0349854
        k(    5) = (   0.0000000   0.1428571   0.1428571), wk =   0.0699708
        k(    6) = (   0.0000000   0.1428571   0.2857143), wk =   0.1399417
        k(    7) = (   0.0000000   0.1428571   0.4285714), wk =   0.1399417
        k(    8) = (   0.0000000   0.2857143   0.2857143), wk =   0.0699708
        k(    9) = (   0.0000000   0.2857143   0.4285714), wk =   0.1399417
        k(   10) = (   0.0000000   0.4285714   0.4285714), wk =   0.0699708
        k(   11) = (   0.1428571   0.1428571   0.1428571), wk =   0.0466472
        k(   12) = (   0.1428571   0.1428571   0.2857143), wk =   0.1399417
        k(   13) = (   0.1428571   0.1428571   0.4285714), wk =   0.1399417
        k(   14) = (   0.1428571   0.2857143   0.2857143), wk =   0.1399417
        k(   15) = (   0.1428571   0.2857143   0.4285714), wk =   0.2798834
        k(   16) = (   0.1428571   0.4285714   0.4285714), wk =   0.1399417
        k(   17) = (   0.2857143   0.2857143   0.2857143), wk =   0.0466472
        k(   18) = (   0.2857143   0.2857143   0.4285714), wk =   0.1399417
        k(   19) = (   0.2857143   0.4285714   0.4285714), wk =   0.1399417
        k(   20) = (   0.4285714   0.4285714   0.4285714), wk =   0.0466472

                       cryst. coord.
        k(    1) = (   0.0000000   0.0000000   0.0000000), wk =   0.0058309
        k(    2) = (   0.0000000   0.0000000   0.1428571), wk =   0.0349854
        k(    3) = (   0.0000000   0.0000000   0.2857143), wk =   0.0349854
        k(    4) = (   0.0000000   0.0000000   0.4285714), wk =   0.0349854
        k(    5) = (   0.0000000   0.1428571   0.1428571), wk =   0.0699708
        k(    6) = (   0.0000000   0.1428571   0.2857143), wk =   0.1399417
        k(    7) = (   0.0000000   0.1428571   0.4285714), wk =   0.1399417
        k(    8) = (   0.0000000   0.2857143   0.2857143), wk =   0.0699708
        k(    9) = (   0.0000000   0.2857143   0.4285714), wk =   0.1399417
        k(   10) = (   0.0000000   0.4285714   0.4285714), wk =   0.0699708
        k(   11) = (   0.1428571   0.1428571   0.1428571), wk =   0.0466472
        k(   12) = (   0.1428571   0.1428571   0.2857143), wk =   0.1399417
        k(   13) = (   0.1428571   0.1428571   0.4285714), wk =   0.1399417
        k(   14) = (   0.1428571   0.2857143   0.2857143), wk =   0.1399417
        k(   15) = (   0.1428571   0.2857143   0.4285714), wk =   0.2798834
        k(   16) = (   0.1428571   0.4285714   0.4285714), wk =   0.1399417
        k(   17) = (   0.2857143   0.2857143   0.2857143), wk =   0.0466472
        k(   18) = (   0.2857143   0.2857143   0.4285714), wk =   0.1399417
        k(   19) = (   0.2857143   0.4285714   0.4285714), wk =   0.1399417
        k(   20) = (   0.4285714   0.4285714   0.4285714), wk =   0.0466472

     Dense  grid:   236937 G-vectors     FFT dimensions: (  80,  80,  80)

     Smooth grid:   169797 G-vectors     FFT dimensions: (  72,  72,  72)

     Dynamical RAM for                 wfc:       0.97 MB

     Dynamical RAM for     wfc (w. buffer):      20.38 MB

     Dynamical RAM for           str. fact:       0.90 MB

     Dynamical RAM for           local pot:       0.00 MB

     Dynamical RAM for          nlocal pot:       3.23 MB

     Dynamical RAM for                qrad:       6.42 MB

     Dynamical RAM for          rho,v,vnew:       2.82 MB

     Dynamical RAM for               rhoin:       0.94 MB

     Dynamical RAM for            rho*nmix:       7.23 MB

     Dynamical RAM for           G-vectors:       1.86 MB

     Dynamical RAM for          h,s,v(r/c):       0.03 MB

     Dynamical RAM for          <psi|beta>:       0.03 MB

     Dynamical RAM for                 psi:       1.94 MB

     Dynamical RAM for                hpsi:       1.94 MB

     Dynamical RAM for                spsi:       1.94 MB

     Dynamical RAM for      wfcinit/wfcrot:       4.60 MB

     Dynamical RAM for           addusdens:      85.87 MB

     Dynamical RAM for          addusforce:      88.83 MB

     Dynamical RAM for         addusstress:      90.85 MB

     Estimated static dynamical RAM per process >      47.59 MB

     Estimated max dynamical RAM per process >     138.43 MB

     Estimated total dynamical RAM >       1.08 GB

     Initial potential from superposition of free atoms

     starting charge   39.84242, renormalised to   40.00000
     Starting wfcs are   56 randomized atomic wfcs

     total cpu time spent up to now is        5.9 secs

     Self-consistent Calculation

     iteration #  1     ecut=    80.00 Ry     beta= 0.70
     Davidson diagonalization with overlap
     ethr =  1.00E-02,  avg # of iterations =  2.3

     total cpu time spent up to now is       11.0 secs

     total energy              =    -256.82766360 Ry
     estimated scf accuracy    <       0.72762856 Ry

     iteration #  2     ecut=    80.00 Ry     beta= 0.70
     Davidson diagonalization with overlap
     ethr =  1.82E-03,  avg # of iterations =  3.0

     total cpu time spent up to now is       16.5 secs

     total energy              =    -257.01255296 Ry
     estimated scf accuracy    <       0.06005461 Ry

     iteration #  3     ecut=    80.00 Ry     beta= 0.70
     Davidson diagonalization with overlap
     ethr =  1.50E-04,  avg # of iterations =  3.2

     total cpu time spent up to now is       21.9 secs

     total energy              =    -257.02265703 Ry
     estimated scf accuracy    <       0.00169199 Ry

     iteration #  4     ecut=    80.00 Ry     beta= 0.70
     Davidson diagonalization with overlap
     c_bands:  1 eigenvalues not converged
     ethr =  4.23E-06,  avg # of iterations =  6.4

     total cpu time spent up to now is       29.9 secs

     total energy              =    -257.02308894 Ry
     estimated scf accuracy    <       0.00030085 Ry

     iteration #  5     ecut=    80.00 Ry     beta= 0.70
     Davidson diagonalization with overlap
     c_bands:  1 eigenvalues not converged
     ethr =  7.52E-07,  avg # of iterations =  3.5

     total cpu time spent up to now is       35.9 secs

     total energy              =    -257.02316593 Ry
     estimated scf accuracy    <       0.00002251 Ry

     iteration #  6     ecut=    80.00 Ry     beta= 0.70
     Davidson diagonalization with overlap
     ethr =  5.63E-08,  avg # of iterations =  4.5

     total cpu time spent up to now is       42.8 secs

     total energy              =    -257.02317406 Ry
     estimated scf accuracy    <       0.00000091 Ry

     iteration #  7     ecut=    80.00 Ry     beta= 0.70
     Davidson diagonalization with overlap
     ethr =  2.28E-09,  avg # of iterations =  5.4

     total cpu time spent up to now is       51.6 secs

     total energy              =    -257.02317489 Ry
     estimated scf accuracy    <       0.00000001 Ry

     iteration #  8     ecut=    80.00 Ry     beta= 0.70
     Davidson diagonalization with overlap
     ethr =  2.86E-11,  avg # of iterations =  6.6

     total cpu time spent up to now is       60.5 secs

     End of self-consistent calculation

          k = 0.0000 0.0000 0.0000 ( 21247 PWs)   bands (ev):

   -18.1400 -18.0400 -18.0400 -18.0400  -5.3032  -5.3032  -5.3032  -4.8722
    -4.8722  -4.8722  -4.8722  -4.8722  -4.8722  -4.6063  -4.6063  -4.6063
     1.5971   2.1527   2.1527   2.1527   6.5003   6.5003   6.5003   9.1607

     occupation numbers 
     1.0000   1.0000   1.0000   1.0000   1.0000   1.0000   1.0000   1.0000
     1.0000   1.0000   1.0000   1.0000   1.0000   1.0000   1.0000   1.0000
     1.0000   1.0000   1.0000   1.0000   0.0000   0.0000   0.0000   0.0000

          k = 0.0000 0.0000 0.1429 ( 21227 PWs)   bands (ev):

   -18.1351 -18.0450 -18.0399 -18.0399  -5.2834  -5.2834  -5.2785  -4.8953
    -4.8953  -4.8803  -4.8803  -4.8595  -4.8595  -4.6537  -4.6200  -4.6200
     1.7000   2.2022   2.2248   2.2248   6.5623   6.5932   6.5932   8.9246

     occupation numbers 
     1.0000   1.0000   1.0000   1.0000   1.0000   1.0000   1.0000   1.0000
     1.0000   1.0000   1.0000   1.0000   1.0000   1.0000   1.0000   1.0000
     1.0000   1.0000   1.0000   1.0000   0.0000   0.0000   0.0000   0.0000

          k = 0.0000 0.0000 0.2857 ( 21194 PWs)   bands (ev):

   -18.1213 -18.0589 -18.0398 -18.0398  -5.2271  -5.2271  -5.2047  -4.9588
    -4.9588  -4.8983  -4.8983  -4.8238  -4.8238  -4.7773  -4.6580  -4.6580
     1.9570   2.3088   2.3972   2.3972   6.7462   6.8617   6.8617   8.2614

     occupation numbers 
     1.0000   1.0000   1.0000   1.0000   1.0000   1.0000   1.0000   1.0000
     1.0000   1.0000   1.0000   1.0000   1.0000   1.0000   1.0000   1.0000
     1.0000   1.0000   1.0000   1.0000   0.0000   0.0000   0.0000   0.0000

          k = 0.0000 0.0000 0.4286 ( 21230 PWs)   bands (ev):

   -18.1013 -18.0790 -18.0397 -18.0396  -5.1437  -5.1437  -5.0860  -5.0480
    -5.0480  -4.9348  -4.9125  -4.9125  -4.7714  -4.7714  -4.7123  -4.7123
     2.2278   2.3555   2.5481   2.5481   7.0452   7.2764   7.2764   7.4433

     occupation numbers 
     1.0000   1.0000   1.0000   1.0000   1.0000   1.0000   1.0000   1.0000
     1.0000   1.0000   1.0000   1.0000   1.0000   1.0000   1.0000   1.0000
     1.0000   1.0000   1.0000   1.0000   0.0000   0.0000   0.0000   0.0000

          k = 0.0000 0.1429 0.1429 ( 21210 PWs)   bands (ev):

   -18.1304 -18.0447 -18.0447 -18.0401  -5.2650  -5.2650  -5.2639  -4.9501
    -4.8822  -4.8822  -4.8636  -4.8636  -4.8519  -4.7179  -4.6342  -4.6115
     1.7995   2.2751   2.2751   2.2948   6.6511   6.6511   6.6574   8.3900

     occupation numbers 
     1.0000   1.0000   1.0000   1.0000   1.0000   1.0000   1.0000   1.0000
     1.0000   1.0000   1.0000   1.0000   1.0000   1.0000   1.0000   1.0000
     1.0000   1.0000   1.0000   1.0000   0.0000   0.0000   0.0000   0.0000

          k = 0.0000 0.1429 0.2857 ( 21175 PWs)   bands (ev):

   -18.1172 -18.0579 -18.0438 -18.0407  -5.2271  -5.2085  -5.2081  -5.0256
    -4.9446  -4.8703  -4.8455  -4.8452  -4.8409  -4.8182  -4.6736  -4.6362
     2.0486   2.3842   2.4501   2.4625   6.8222   6.8340   6.9069   7.9533

     occupation numbers 
     1.0000   1.0000   1.0000   1.0000   1.0000   1.0000   1.0000   1.0000
     1.0000   1.0000   1.0000   1.0000   1.0000   1.0000   1.0000   1.0000
     1.0000   1.0000   1.0000   1.0000   0.0000   0.0000   0.0000   0.0000

          k = 0.0000 0.1429 0.4286 ( 21194 PWs)   bands (ev):

   -18.0982 -18.0770 -18.0427 -18.0415  -5.1708  -5.1264  -5.1116  -5.1020
    -5.0323  -4.9826  -4.8690  -4.8570  -4.7910  -4.7553  -4.7298  -4.6894
     2.3122   2.4348   2.6049   2.6090   7.0911   7.0972   7.2981   7.4540

     occupation numbers 
     1.0000   1.0000   1.0000   1.0000   1.0000   1.0000   1.0000   1.0000
     1.0000   1.0000   1.0000   1.0000   1.0000   1.0000   1.0000   1.0000
     1.0000   1.0000   1.0000   1.0000   0.0000   0.0000   0.0000   0.0000

          k = 0.0000 0.2857 0.2857 ( 21194 PWs)   bands (ev):

   -18.1059 -18.0551 -18.0551 -18.0431  -5.2125  -5.2125  -5.1555  -5.1093
    -4.9582  -4.9044  -4.9044  -4.8035  -4.8035  -4.7983  -4.7169  -4.6309
     2.2796   2.5673   2.5673   2.6194   6.7787   7.0376   7.0377   7.4868

     occupation numbers 
     1.0000   1.0000   1.0000   1.0000   1.0000   1.0000   1.0000   1.0000
     1.0000   1.0000   1.0000   1.0000   1.0000   1.0000   1.0000   1.0000
     1.0000   1.0000   1.0000   1.0000   0.0000   0.0000   0.0000   0.0000

          k = 0.0000 0.2857 0.4286 ( 21187 PWs)   bands (ev):

   -18.0895 -18.0714 -18.0511 -18.0468  -5.2048  -5.1719  -5.1634  -5.0772
    -5.0746  -4.9876  -4.8453  -4.7870  -4.7810  -4.7785  -4.7271  -4.6641
     2.5244   2.6311   2.7355   2.7535   6.7798   6.9795   7.0697   7.1143

     occupation numbers 
     1.0000   1.0000   1.0000   1.0000   1.0000   1.0000   1.0000   1.0000
     1.0000   1.0000   1.0000   1.0000   1.0000   1.0000   1.0000   1.0000
     1.0000   1.0000   1.0000   1.0000   0.0000   0.0000   0.0000   0.0000

          k = 0.0000 0.4286 0.4286 ( 21186 PWs)   bands (ev):

   -18.0771 -18.0634 -18.0634 -18.0546  -5.2088  -5.2035  -5.2035  -5.1570
    -5.0047  -4.9220  -4.9220  -4.8473  -4.7309  -4.7143  -4.7143  -4.6708
     2.7441   2.8230   2.8230   2.8678   6.5968   6.6989   6.6989   6.7606

     occupation numbers 
     1.0000   1.0000   1.0000   1.0000   1.0000   1.0000   1.0000   1.0000
     1.0000   1.0000   1.0000   1.0000   1.0000   1.0000   1.0000   1.0000
     1.0000   1.0000   1.0000   1.0000   0.0000   0.0000   0.0000   0.0000

          k = 0.1429 0.1429 0.1429 ( 21185 PWs)   bands (ev):

   -18.1259 -18.0446 -18.0446 -18.0446  -5.2543  -5.2543  -5.2543  -4.9250
    -4.9250  -4.9250  -4.8403  -4.8403  -4.8403  -4.7810  -4.6238  -4.6238
     1.8955   2.3459   2.3459   2.3459   6.7045   6.7046   6.7046   7.8701

     occupation numbers 
     1.0000   1.0000   1.0000   1.0000   1.0000   1.0000   1.0000   1.0000
     1.0000   1.0000   1.0000   1.0000   1.0000   1.0000   1.0000   1.0000
     1.0000   1.0000   1.0000   1.0000   0.0000   0.0000   0.0000   0.0000

          k = 0.1429 0.1429 0.2857 ( 21183 PWs)   bands (ev):

   -18.1134 -18.0571 -18.0444 -18.0444  -5.2273  -5.2273  -5.2180  -4.9802
    -4.9802  -4.9032  -4.8605  -4.8318  -4.8318  -4.8078  -4.6580  -4.6424
     2.1370   2.4573   2.5161   2.5161   6.8310   6.8382   6.8382   7.4708

     occupation numbers 
     1.0000   1.0000   1.0000   1.0000   1.0000   1.0000   1.0000   1.0000
     1.0000   1.0000   1.0000   1.0000   1.0000   1.0000   1.0000   1.0000
     1.0000   1.0000   1.0000   1.0000   0.0000   0.0000   0.0000   0.0000

          k = 0.1429 0.1429 0.4286 ( 21172 PWs)   bands (ev):

   -18.0953 -18.0752 -18.0443 -18.0443  -5.2009  -5.2009  -5.1444  -5.0342
    -5.0195  -5.0195  -4.8347  -4.8347  -4.7780  -4.7603  -4.7069  -4.6989
     2.3936   2.5116   2.6665   2.6665   6.9617   6.9618   6.9662   7.1306

     occupation numbers 
     1.0000   1.0000   1.0000   1.0000   1.0000   1.0000   1.0000   1.0000
     1.0000   1.0000   1.0000   1.0000   1.0000   1.0000   1.0000   1.0000
     1.0000   1.0000   1.0000   1.0000   0.0000   0.0000   0.0000   0.0000

          k = 0.1429 0.2857 0.2857 ( 21213 PWs)   bands (ev):

   -18.1027 -18.0550 -18.0550 -18.0462  -5.2394  -5.2394  -5.2357  -5.0202
    -5.0032  -4.8927  -4.8927  -4.7917  -4.7917  -4.7901  -4.6876  -4.6392
     2.3609   2.6355   2.6355   2.6754   6.6939   6.7939   6.7939   7.0662

     occupation numbers 
     1.0000   1.0000   1.0000   1.0000   1.0000   1.0000   1.0000   1.0000
     1.0000   1.0000   1.0000   1.0000   1.0000   1.0000   1.0000   1.0000
     1.0000   1.0000   1.0000   1.0000   0.0000   0.0000   0.0000   0.0000

          k = 0.1429 0.2857 0.4286 ( 21215 PWs)   bands (ev):

   -18.0873 -18.0703 -18.0520 -18.0489  -5.2546  -5.2514  -5.2092  -5.1319
    -4.9815  -4.9368  -4.8093  -4.7772  -4.7731  -4.7411  -4.7308  -4.6708
     2.5994   2.7024   2.7994   2.8135   6.5897   6.6474   6.6806   6.7548

     occupation numbers 
     1.0000   1.0000   1.0000   1.0000   1.0000   1.0000   1.0000   1.0000
     1.0000   1.0000   1.0000   1.0000   1.0000   1.0000   1.0000   1.0000
     1.0000   1.0000   1.0000   1.0000   0.0000   0.0000   0.0000   0.0000

          k = 0.1429 0.4286 0.4286 ( 21214 PWs)   bands (ev):

   -18.0759 -18.0633 -18.0633 -18.0556  -5.2768  -5.2612  -5.2612  -5.2169
    -4.9257  -4.8639  -4.8639  -4.7971  -4.7277  -4.7137  -4.7137  -4.6735
     2.8140   2.8899   2.8899   2.9313   6.3679   6.4137   6.4137   6.4609

     occupation numbers 
     1.0000   1.0000   1.0000   1.0000   1.0000   1.0000   1.0000   1.0000
     1.0000   1.0000   1.0000   1.0000   1.0000   1.0000   1.0000   1.0000
     1.0000   1.0000   1.0000   1.0000   0.0000   0.0000   0.0000   0.0000

          k = 0.2857 0.2857 0.2857 ( 21197 PWs)   bands (ev):

   -18.0939 -18.0548 -18.0548 -18.0548  -5.2911  -5.2911  -5.2911  -5.1348
    -4.8733  -4.8733  -4.8733  -4.7670  -4.7670  -4.7670  -4.6626  -4.6626
     2.5682   2.8025   2.8025   2.8025   6.4663   6.4663   6.4663   6.6377

     occupation numbers 
     1.0000   1.0000   1.0000   1.0000   1.0000   1.0000   1.0000   1.0000
     1.0000   1.0000   1.0000   1.0000   1.0000   1.0000   1.0000   1.0000
     1.0000   1.0000   1.0000   1.0000   0.0000   0.0000   0.0000   0.0000

          k = 0.2857 0.2857 0.4286 ( 21214 PWs)   bands (ev):

   -18.0813 -18.0673 -18.0547 -18.0547  -5.3270  -5.3270  -5.2914  -5.2351
    -4.8610  -4.8610  -4.7610  -4.7496  -4.7496  -4.7336  -4.6963  -4.6864
     2.7907   2.8810   2.9541   2.9541   6.2393   6.2393   6.2759   6.3350

     occupation numbers 
     1.0000   1.0000   1.0000   1.0000   1.0000   1.0000   1.0000   1.0000
     1.0000   1.0000   1.0000   1.0000   1.0000   1.0000   1.0000   1.0000
     1.0000   1.0000   1.0000   1.0000   0.0000   0.0000   0.0000   0.0000

          k = 0.2857 0.4286 0.4286 ( 21218 PWs)   bands (ev):

   -18.0726 -18.0631 -18.0631 -18.0586  -5.3644  -5.3512  -5.3512  -5.3176
    -4.8078  -4.7737  -4.7737  -4.7239  -4.7189  -4.7122  -4.7121  -4.6814
     2.9918   3.0564   3.0564   3.0849   5.9834   6.0019   6.0019   6.0424

     occupation numbers 
     1.0000   1.0000   1.0000   1.0000   1.0000   1.0000   1.0000   1.0000
     1.0000   1.0000   1.0000   1.0000   1.0000   1.0000   1.0000   1.0000
     1.0000   1.0000   1.0000   1.0000   0.0000   0.0000   0.0000   0.0000

          k = 0.4286 0.4286 0.4286 ( 21209 PWs)   bands (ev):

   -18.0679 -18.0629 -18.0629 -18.0629  -5.4065  -5.4065  -5.4065  -5.3893
    -4.7227  -4.7227  -4.7227  -4.7065  -4.7065  -4.7065  -4.6931  -4.6931
     3.1735   3.2118   3.2118   3.2118   5.7267   5.7267   5.7267   5.7529

     occupation numbers 
     1.0000   1.0000   1.0000   1.0000   1.0000   1.0000   1.0000   1.0000
     1.0000   1.0000   1.0000   1.0000   1.0000   1.0000   1.0000   1.0000
     1.0000   1.0000   1.0000   1.0000   0.0000   0.0000   0.0000   0.0000

     the Fermi energy is     4.1268 ev

!    total energy              =    -257.02317490 Ry
     estimated scf accuracy    <          6.4E-09 Ry
     smearing contrib. (-TS)   =       0.00000000 Ry
     internal energy E=F+TS    =    -257.02317490 Ry

     The total energy is F=E-TS. E is the sum of the following terms:
     one-electron contribution =     -27.84411698 Ry
     hartree contribution      =      25.79780840 Ry
     xc contribution           =    -123.78792430 Ry
     ewald contribution        =    -131.18894202 Ry

     convergence has been achieved in   8 iterations

     Forces acting on atoms (cartesian axes, Ry/au):

     atom    1 type  2   force =     0.00000000    0.00000000    0.00000000
     atom    2 type  2   force =     0.00000000    0.00000000    0.00000000
     atom    3 type  2   force =     0.00000000    0.00000000    0.00000000
     atom    4 type  2   force =     0.00000000    0.00000000    0.00000000
     atom    5 type  1   force =     0.00000000    0.00000000    0.00000000
     atom    6 type  1   force =     0.00000000    0.00000000    0.00000000
     atom    7 type  1   force =     0.00000000    0.00000000    0.00000000
     atom    8 type  1   force =     0.00000000    0.00000000    0.00000000
     The non-local contrib.  to forces
     atom    1 type  2   force =     0.00000000    0.00000000    0.00000000
     atom    2 type  2   force =     0.00000000    0.00000000    0.00000000
     atom    3 type  2   force =     0.00000000    0.00000000    0.00000000
     atom    4 type  2   force =     0.00000000    0.00000000    0.00000000
     atom    5 type  1   force =     0.00000000    0.00000000    0.00000000
     atom    6 type  1   force =     0.00000000    0.00000000    0.00000000
     atom    7 type  1   force =     0.00000000    0.00000000    0.00000000
     atom    8 type  1   force =     0.00000000    0.00000000    0.00000000
     The ionic contribution  to forces
     atom    1 type  2   force =    -0.00000000   -0.00000000   -0.00000000
     atom    2 type  2   force =    -0.00000000    0.00000000    0.00000000
     atom    3 type  2   force =     0.00000000   -0.00000000    0.00000000
     atom    4 type  2   force =     0.00000000    0.00000000   -0.00000000
     atom    5 type  1   force =    -0.00000000   -0.00000000    0.00000000
     atom    6 type  1   force =    -0.00000000    0.00000000   -0.00000000
     atom    7 type  1   force =     0.00000000   -0.00000000   -0.00000000
     atom    8 type  1   force =     0.00000000    0.00000000    0.00000000
     The local contribution  to forces
     atom    1 type  2   force =    -0.00000000   -0.00000000   -0.00000000
     atom    2 type  2   force =    -0.00000000    0.00000000    0.00000000
     atom    3 type  2   force =     0.00000000   -0.00000000    0.00000000
     atom    4 type  2   force =     0.00000000    0.00000000   -0.00000000
     atom    5 type  1   force =    -0.00000000   -0.00000000    0.00000000
     atom    6 type  1   force =    -0.00000000    0.00000000   -0.00000000
     atom    7 type  1   force =     0.00000000   -0.00000000   -0.00000000
     atom    8 type  1   force =     0.00000000    0.00000000    0.00000000
     The core correction contribution to forces
     atom    1 type  2   force =    -0.00000000   -0.00000000   -0.00000000
     atom    2 type  2   force =    -0.00000000   -0.00000000    0.00000000
     atom    3 type  2   force =    -0.00000000   -0.00000000    0.00000000
     atom    4 type  2   force =    -0.00000000   -0.00000000   -0.00000000
     atom    5 type  1   force =     0.00000000    0.00000000    0.00000000
     atom    6 type  1   force =     0.00000000    0.00000000    0.00000000
     atom    7 type  1   force =     0.00000000    0.00000000    0.00000000
     atom    8 type  1   force =     0.00000000    0.00000000    0.00000000
     The Hubbard contrib.    to forces
     atom    1 type  2   force =     0.00000000    0.00000000    0.00000000
     atom    2 type  2   force =     0.00000000    0.00000000    0.00000000
     atom    3 type  2   force =     0.00000000    0.00000000    0.00000000
     atom    4 type  2   force =     0.00000000    0.00000000    0.00000000
     atom    5 type  1   force =     0.00000000    0.00000000    0.00000000
     atom    6 type  1   force =     0.00000000    0.00000000    0.00000000
     atom    7 type  1   force =     0.00000000    0.00000000    0.00000000
     atom    8 type  1   force =     0.00000000    0.00000000    0.00000000
     The SCF correction term to forces
     atom    1 type  2   force =    -0.00000000   -0.00000000   -0.00000000
     atom    2 type  2   force =     0.00000000    0.00000000   -0.00000000
     atom    3 type  2   force =     0.00000000   -0.00000000   -0.00000000
     atom    4 type  2   force =    -0.00000000   -0.00000000   -0.00000000
     atom    5 type  1   force =    -0.00000000   -0.00000000   -0.00000000
     atom    6 type  1   force =    -0.00000000    0.00000000    0.00000000
     atom    7 type  1   force =     0.00000000    0.00000000    0.00000000
     atom    8 type  1   force =    -0.00000000    0.00000000   -0.00000000

     Total force =     0.000000     Total SCF correction =     0.000000


     Computing stress (Cartesian axis) and pressure

          total   stress  (Ry/bohr**3)                   (kbar)     P=        2.08
   0.00001412   0.00000000   0.00000000            2.08        0.00        0.00
   0.00000000   0.00001412   0.00000000            0.00        2.08        0.00
   0.00000000   0.00000000   0.00001412            0.00        0.00        2.08

     kinetic stress (kbar)   2809.69      0.00      0.00
                                0.00   2809.69      0.00
                                0.00      0.00   2809.69

     local   stress (kbar)  -3423.50      0.00     -0.00
                                0.00  -3423.50     -0.00
                               -0.00     -0.00  -3423.50

     nonloc. stress (kbar)   4814.05      0.00      0.00
                                0.00   4814.05      0.00
                                0.00      0.00   4814.05

     hartree stress (kbar)    720.97     -0.00      0.00
                               -0.00    720.97      0.00
                                0.00      0.00    720.97

     exc-cor stress (kbar)   6781.40      0.00      0.00
                                0.00   6781.40     -0.00
                                0.00     -0.00   6781.40

     corecor stress (kbar)  -8034.20     -0.00     -0.00
                               -0.00  -8034.20      0.00
                               -0.00      0.00  -8034.20

     ewald   stress (kbar)  -3666.34     -0.00     -0.00
                               -0.00  -3666.34     -0.00
                               -0.00     -0.00  -3666.34

     hubbard stress (kbar)      0.00      0.00      0.00
                                0.00      0.00      0.00
                                0.00      0.00      0.00

     DFT-D   stress (kbar)      0.00      0.00      0.00
                                0.00      0.00      0.00
                                0.00      0.00      0.00

     XDM     stress (kbar)      0.00      0.00      0.00
                                0.00      0.00      0.00
                                0.00      0.00      0.00

     dft-nl  stress (kbar)      0.00      0.00      0.00
                                0.00      0.00      0.00
                                0.00      0.00      0.00

     TS-vdW  stress (kbar)      0.00      0.00      0.00
                                0.00      0.00      0.00
                                0.00      0.00      0.00



     BFGS Geometry Optimization
     Energy error            =      0.0E+00
     Gradient error          =      0.0E+00
     Cell gradient error     =      1.4E-05


     number of scf cycles    =   1
     number of bfgs steps    =   0

     enthalpy new            =    -257.0231749031 Ry

     new trust radius        =       0.0029576130 bohr
     new conv_thr            =       0.0000000100 Ry

     new unit-cell volume =   1756.43064 a.u.^3 (   260.27617 Ang^3 )
     density =      3.41740 g/cm^3

CELL_PARAMETERS (alat= 12.06119589)
   1.000353042   0.000000000   0.000000000
   0.000000000   1.000353042   0.000000000
   0.000000000   0.000000000   1.000353042

ATOMIC_POSITIONS (crystal)
Cs            0.0000000000        0.0000000000        0.0000000000
Cs            0.0000000000        0.5000000000        0.5000000000
Cs            0.5000000000        0.0000000000        0.5000000000
Cs            0.5000000000        0.5000000000        0.0000000000
H             0.0000000000        0.0000000000        0.5000000000
H             0.0000000000        0.5000000000        0.0000000000
H             0.5000000000        0.0000000000        0.0000000000
H             0.5000000000        0.5000000000        0.5000000000



     Writing output data file ./CsAlH4_optgeo.save/
     NEW-OLD atomic charge density approx. for the potential
     extrapolated charge   40.04217, renormalised to   40.00000

     total cpu time spent up to now is       69.3 secs

     Self-consistent Calculation

     iteration #  1     ecut=    80.00 Ry     beta= 0.70
     Davidson diagonalization with overlap
     ethr =  1.00E-06,  avg # of iterations =  2.0

     Threshold (ethr) on eigenvalues was too large:
     Diagonalizing with lowered threshold

     Davidson diagonalization with overlap
     ethr =  3.48E-08,  avg # of iterations =  1.1

     total cpu time spent up to now is       80.0 secs

     total energy              =    -257.02317324 Ry
     estimated scf accuracy    <       0.00001439 Ry

     iteration #  2     ecut=    80.00 Ry     beta= 0.70
     Davidson diagonalization with overlap
     ethr =  3.60E-08,  avg # of iterations =  3.0

     total cpu time spent up to now is       87.5 secs

     total energy              =    -257.02320112 Ry
     estimated scf accuracy    <       0.00001609 Ry

     iteration #  3     ecut=    80.00 Ry     beta= 0.70
     Davidson diagonalization with overlap
     ethr =  3.60E-08,  avg # of iterations =  1.1

     total cpu time spent up to now is       91.8 secs

     total energy              =    -257.02320281 Ry
     estimated scf accuracy    <       0.00000362 Ry

     iteration #  4     ecut=    80.00 Ry     beta= 0.70
     Davidson diagonalization with overlap
     ethr =  9.05E-09,  avg # of iterations =  1.0

     total cpu time spent up to now is       96.1 secs

     total energy              =    -257.02319921 Ry
     estimated scf accuracy    <       0.00000519 Ry

     iteration #  5     ecut=    80.00 Ry     beta= 0.70
     Davidson diagonalization with overlap
     ethr =  9.05E-09,  avg # of iterations =  2.0

     total cpu time spent up to now is      102.2 secs

     total energy              =    -257.02320057 Ry
     estimated scf accuracy    <       0.00000017 Ry

     iteration #  6     ecut=    80.00 Ry     beta= 0.70
     Davidson diagonalization with overlap
     ethr =  4.34E-10,  avg # of iterations =  2.0

     total cpu time spent up to now is      108.6 secs

     total energy              =    -257.02320045 Ry
     estimated scf accuracy    <       0.00000043 Ry

     iteration #  7     ecut=    80.00 Ry     beta= 0.70
     Davidson diagonalization with overlap
     c_bands:  1 eigenvalues not converged
     ethr =  4.34E-10,  avg # of iterations =  2.9

     total cpu time spent up to now is      113.8 secs

     total energy              =    -257.02320042 Ry
     estimated scf accuracy    <       0.00000013 Ry

     iteration #  8     ecut=    80.00 Ry     beta= 0.70
     Davidson diagonalization with overlap
     c_bands:  1 eigenvalues not converged
     ethr =  3.16E-10,  avg # of iterations =  3.3

     total cpu time spent up to now is      119.2 secs

     total energy              =    -257.02320042 Ry
     estimated scf accuracy    <       0.00000003 Ry

     iteration #  9     ecut=    80.00 Ry     beta= 0.70
     Davidson diagonalization with overlap
     ethr =  7.24E-11,  avg # of iterations =  1.9

     total cpu time spent up to now is      124.4 secs

     End of self-consistent calculation

          k = 0.0000 0.0000 0.0000 ( 21247 PWs)   bands (ev):

   -18.1479 -18.0483 -18.0483 -18.0483  -5.3101  -5.3101  -5.3101  -4.8803
    -4.8803  -4.8803  -4.8803  -4.8803  -4.8803  -4.6152  -4.6152  -4.6152
     1.5907   2.1470   2.1470   2.1470   6.4940   6.4940   6.4940   9.1473

     occupation numbers 
     1.0000   1.0000   1.0000   1.0000   1.0000   1.0000   1.0000   1.0000
     1.0000   1.0000   1.0000   1.0000   1.0000   1.0000   1.0000   1.0000
     1.0000   1.0000   1.0000   1.0000   0.0000   0.0000   0.0000   0.0000

          k = 0.0000 0.0000 0.1428 ( 21227 PWs)   bands (ev):

   -18.1429 -18.0532 -18.0482 -18.0482  -5.2903  -5.2903  -5.2854  -4.9033
    -4.9033  -4.8884  -4.8884  -4.8677  -4.8677  -4.6625  -4.6288  -4.6288
     1.6935   2.1963   2.2190   2.2190   6.5559   6.5867   6.5867   8.3212

     occupation numbers 
     1.0000   1.0000   1.0000   1.0000   1.0000   1.0000   1.0000   1.0000
     1.0000   1.0000   1.0000   1.0000   1.0000   1.0000   1.0000   1.0000
     1.0000   1.0000   1.0000   1.0000   0.0000   0.0000   0.0000   0.0000

          k = 0.0000 0.0000 0.2856 ( 21194 PWs)   bands (ev):

   -18.1292 -18.0671 -18.0480 -18.0480  -5.2342  -5.2342  -5.2118  -4.9667
    -4.9667  -4.9063  -4.9063  -4.8320  -4.8320  -4.7856  -4.6668  -4.6668
     1.9500   2.3025   2.3910   2.3910   6.7397   6.8546   6.8546   7.8949

     occupation numbers 
     1.0000   1.0000   1.0000   1.0000   1.0000   1.0000   1.0000   1.0000
     1.0000   1.0000   1.0000   1.0000   1.0000   1.0000   1.0000   1.0000
     1.0000   1.0000   1.0000   1.0000   0.0000   0.0000   0.0000   0.0000

          k = 0.0000 0.0000 0.4284 ( 21230 PWs)   bands (ev):

   -18.1092 -18.0871 -18.0479 -18.0479  -5.1510  -5.1510  -5.0935  -5.0556
    -5.0556  -4.9426  -4.9205  -4.9205  -4.7798  -4.7798  -4.7209  -4.7209
     2.2206   2.3485   2.5414   2.5414   7.0384   7.2683   7.2683   7.4361

     occupation numbers 
     1.0000   1.0000   1.0000   1.0000   1.0000   1.0000   1.0000   1.0000
     1.0000   1.0000   1.0000   1.0000   1.0000   1.0000   1.0000   1.0000
     1.0000   1.0000   1.0000   1.0000   0.0000   0.0000   0.0000   0.0000

          k = 0.0000 0.1428 0.1428 ( 21210 PWs)   bands (ev):

   -18.1383 -18.0529 -18.0529 -18.0484  -5.2719  -5.2719  -5.2709  -4.9580
    -4.8903  -4.8903  -4.8718  -4.8718  -4.8600  -4.7264  -4.6430  -4.6204
     1.7928   2.2691   2.2691   2.2888   6.6446   6.6446   6.6506   8.3808

     occupation numbers 
     1.0000   1.0000   1.0000   1.0000   1.0000   1.0000   1.0000   1.0000
     1.0000   1.0000   1.0000   1.0000   1.0000   1.0000   1.0000   1.0000
     1.0000   1.0000   1.0000   1.0000   0.0000   0.0000   0.0000   0.0000

          k = 0.0000 0.1428 0.2856 ( 21175 PWs)   bands (ev):

   -18.1251 -18.0661 -18.0520 -18.0489  -5.2341  -5.2156  -5.2152  -5.0332
    -4.9525  -4.8784  -4.8537  -4.8534  -4.8491  -4.8265  -4.6824  -4.6450
     2.0415   2.3777   2.4436   2.4561   6.8154   6.8266   6.8997   7.9439

     occupation numbers 
     1.0000   1.0000   1.0000   1.0000   1.0000   1.0000   1.0000   1.0000
     1.0000   1.0000   1.0000   1.0000   1.0000   1.0000   1.0000   1.0000
     1.0000   1.0000   1.0000   1.0000   0.0000   0.0000   0.0000   0.0000

          k = 0.0000 0.1428 0.4284 ( 21194 PWs)   bands (ev):

   -18.1062 -18.0851 -18.0509 -18.0498  -5.1780  -5.1337  -5.1190  -5.1094
    -5.0399  -4.9903  -4.8771  -4.8651  -4.7994  -4.7637  -4.7384  -4.6981
     2.3049   2.4277   2.5981   2.6022   7.0829   7.0902   7.2900   7.4449

     occupation numbers 
     1.0000   1.0000   1.0000   1.0000   1.0000   1.0000   1.0000   1.0000
     1.0000   1.0000   1.0000   1.0000   1.0000   1.0000   1.0000   1.0000
     1.0000   1.0000   1.0000   1.0000   0.0000   0.0000   0.0000   0.0000

          k = 0.0000 0.2856 0.2856 ( 21194 PWs)   bands (ev):

   -18.1138 -18.0633 -18.0633 -18.0514  -5.2196  -5.2196  -5.1628  -5.1167
    -4.9660  -4.9124  -4.9124  -4.8118  -4.8118  -4.8067  -4.7255  -4.6397
     2.2722   2.5604   2.5604   2.6126   6.7709   7.0302   7.0303   7.4779

     occupation numbers 
     1.0000   1.0000   1.0000   1.0000   1.0000   1.0000   1.0000   1.0000
     1.0000   1.0000   1.0000   1.0000   1.0000   1.0000   1.0000   1.0000
     1.0000   1.0000   1.0000   1.0000   0.0000   0.0000   0.0000   0.0000

          k = 0.0000 0.2856 0.4284 ( 21187 PWs)   bands (ev):

   -18.0976 -18.0795 -18.0593 -18.0551  -5.2119  -5.1790  -5.1706  -5.0847
    -5.0821  -4.9954  -4.8535  -4.7954  -4.7894  -4.7868  -4.7357  -4.6728
     2.5168   2.6237   2.7283   2.7464   6.7717   6.9709   7.0609   7.1058

     occupation numbers 
     1.0000   1.0000   1.0000   1.0000   1.0000   1.0000   1.0000   1.0000
     1.0000   1.0000   1.0000   1.0000   1.0000   1.0000   1.0000   1.0000
     1.0000   1.0000   1.0000   1.0000   0.0000   0.0000   0.0000   0.0000

          k = 0.0000 0.4284 0.4284 ( 21186 PWs)   bands (ev):

   -18.0852 -18.0715 -18.0715 -18.0628  -5.2158  -5.2105  -5.2105  -5.1642
    -5.0124  -4.9299  -4.9299  -4.8555  -4.7394  -4.7229  -4.7229  -4.6795
     2.7362   2.8154   2.8154   2.8602   6.5887   6.6907   6.6907   6.7524

     occupation numbers 
     1.0000   1.0000   1.0000   1.0000   1.0000   1.0000   1.0000   1.0000
     1.0000   1.0000   1.0000   1.0000   1.0000   1.0000   1.0000   1.0000
     1.0000   1.0000   1.0000   1.0000   0.0000   0.0000   0.0000   0.0000

          k = 0.1428 0.1428 0.1428 ( 21185 PWs)   bands (ev):

   -18.1338 -18.0528 -18.0528 -18.0528  -5.2613  -5.2613  -5.2613  -4.9330
    -4.9330  -4.9330  -4.8485  -4.8485  -4.8485  -4.7893  -4.6327  -4.6327
     1.8886   2.3397   2.3397   2.3397   6.6977   6.6977   6.6977   7.8618

     occupation numbers 
     1.0000   1.0000   1.0000   1.0000   1.0000   1.0000   1.0000   1.0000
     1.0000   1.0000   1.0000   1.0000   1.0000   1.0000   1.0000   1.0000
     1.0000   1.0000   1.0000   1.0000   0.0000   0.0000   0.0000   0.0000

          k = 0.1428 0.1428 0.2856 ( 21183 PWs)   bands (ev):

   -18.1213 -18.0653 -18.0526 -18.0526  -5.2343  -5.2343  -5.2250  -4.9880
    -4.9880  -4.9111  -4.8686  -4.8401  -4.8401  -4.8161  -4.6668  -4.6512
     2.1298   2.4507   2.5095   2.5095   6.8239   6.8307   6.8307   7.4625

     occupation numbers 
     1.0000   1.0000   1.0000   1.0000   1.0000   1.0000   1.0000   1.0000
     1.0000   1.0000   1.0000   1.0000   1.0000   1.0000   1.0000   1.0000
     1.0000   1.0000   1.0000   1.0000   0.0000   0.0000   0.0000   0.0000

          k = 0.1428 0.1428 0.4284 ( 21172 PWs)   bands (ev):

   -18.1033 -18.0833 -18.0525 -18.0525  -5.2080  -5.2080  -5.1516  -5.0417
    -5.0271  -5.0271  -4.8429  -4.8429  -4.7863  -4.7688  -4.7155  -4.7075
     2.3862   2.5043   2.6596   2.6596   6.9534   6.9534   6.9586   7.1226

     occupation numbers 
     1.0000   1.0000   1.0000   1.0000   1.0000   1.0000   1.0000   1.0000
     1.0000   1.0000   1.0000   1.0000   1.0000   1.0000   1.0000   1.0000
     1.0000   1.0000   1.0000   1.0000   0.0000   0.0000   0.0000   0.0000

          k = 0.1428 0.2856 0.2856 ( 21213 PWs)   bands (ev):

   -18.1107 -18.0632 -18.0632 -18.0544  -5.2464  -5.2464  -5.2427  -5.0278
    -5.0109  -4.9008  -4.9008  -4.8001  -4.8001  -4.7985  -4.6963  -4.6480
     2.3533   2.6285   2.6285   2.6685   6.6861   6.7860   6.7860   7.0581

     occupation numbers 
     1.0000   1.0000   1.0000   1.0000   1.0000   1.0000   1.0000   1.0000
     1.0000   1.0000   1.0000   1.0000   1.0000   1.0000   1.0000   1.0000
     1.0000   1.0000   1.0000   1.0000   0.0000   0.0000   0.0000   0.0000

          k = 0.1428 0.2856 0.4284 ( 21215 PWs)   bands (ev):

   -18.0954 -18.0784 -18.0602 -18.0571  -5.2616  -5.2583  -5.2162  -5.1392
    -4.9893  -4.9447  -4.8176  -4.7856  -4.7815  -4.7496  -4.7393  -4.6796
     2.5917   2.6949   2.7921   2.8062   6.5816   6.6392   6.6725   6.7468

     occupation numbers 
     1.0000   1.0000   1.0000   1.0000   1.0000   1.0000   1.0000   1.0000
     1.0000   1.0000   1.0000   1.0000   1.0000   1.0000   1.0000   1.0000
     1.0000   1.0000   1.0000   1.0000   0.0000   0.0000   0.0000   0.0000

          k = 0.1428 0.4284 0.4284 ( 21214 PWs)   bands (ev):

   -18.0840 -18.0714 -18.0714 -18.0638  -5.2837  -5.2681  -5.2681  -5.2239
    -4.9336  -4.8721  -4.8721  -4.8055  -4.7363  -4.7223  -4.7223  -4.6823
     2.8060   2.8821   2.8821   2.9236   6.3600   6.4058   6.4058   6.4531

     occupation numbers 
     1.0000   1.0000   1.0000   1.0000   1.0000   1.0000   1.0000   1.0000
     1.0000   1.0000   1.0000   1.0000   1.0000   1.0000   1.0000   1.0000
     1.0000   1.0000   1.0000   1.0000   0.0000   0.0000   0.0000   0.0000

          k = 0.2856 0.2856 0.2856 ( 21197 PWs)   bands (ev):

   -18.1019 -18.0630 -18.0630 -18.0630  -5.2979  -5.2979  -5.2979  -5.1420
    -4.8814  -4.8814  -4.8814  -4.7755  -4.7755  -4.7755  -4.6713  -4.6713
     2.5604   2.7951   2.7951   2.7951   6.4584   6.4584   6.4584   6.6299

     occupation numbers 
     1.0000   1.0000   1.0000   1.0000   1.0000   1.0000   1.0000   1.0000
     1.0000   1.0000   1.0000   1.0000   1.0000   1.0000   1.0000   1.0000
     1.0000   1.0000   1.0000   1.0000   0.0000   0.0000   0.0000   0.0000

          k = 0.2856 0.2856 0.4284 ( 21214 PWs)   bands (ev):

   -18.0893 -18.0754 -18.0628 -18.0628  -5.3337  -5.3337  -5.2982  -5.2421
    -4.8692  -4.8692  -4.7695  -4.7581  -4.7581  -4.7421  -4.7049  -4.6950
     2.7828   2.8732   2.9464   2.9464   6.2315   6.2315   6.2681   6.3273

     occupation numbers 
     1.0000   1.0000   1.0000   1.0000   1.0000   1.0000   1.0000   1.0000
     1.0000   1.0000   1.0000   1.0000   1.0000   1.0000   1.0000   1.0000
     1.0000   1.0000   1.0000   1.0000   0.0000   0.0000   0.0000   0.0000

          k = 0.2856 0.4284 0.4284 ( 21218 PWs)   bands (ev):

   -18.0807 -18.0712 -18.0712 -18.0667  -5.3710  -5.3579  -5.3579  -5.3243
    -4.8161  -4.7821  -4.7821  -4.7325  -4.7275  -4.7208  -4.7208  -4.6901
     2.9836   3.0483   3.0483   3.0769   5.9758   5.9944   5.9944   6.0349

     occupation numbers 
     1.0000   1.0000   1.0000   1.0000   1.0000   1.0000   1.0000   1.0000
     1.0000   1.0000   1.0000   1.0000   1.0000   1.0000   1.0000   1.0000
     1.0000   1.0000   1.0000   1.0000   0.0000   0.0000   0.0000   0.0000

          k = 0.4284 0.4284 0.4284 ( 21209 PWs)   bands (ev):

   -18.0761 -18.0711 -18.0711 -18.0711  -5.4130  -5.4130  -5.4130  -5.3958
    -4.7312  -4.7312  -4.7312  -4.7151  -4.7151  -4.7151  -4.7018  -4.7018
     3.1650   3.2034   3.2034   3.2034   5.7195   5.7195   5.7195   5.7456

     occupation numbers 
     1.0000   1.0000   1.0000   1.0000   1.0000   1.0000   1.0000   1.0000
     1.0000   1.0000   1.0000   1.0000   1.0000   1.0000   1.0000   1.0000
     1.0000   1.0000   1.0000   1.0000   0.0000   0.0000   0.0000   0.0000

     the Fermi energy is     4.1145 ev

!    total energy              =    -257.02320041 Ry
     estimated scf accuracy    <          8.6E-09 Ry
     smearing contrib. (-TS)   =       0.00000000 Ry
     internal energy E=F+TS    =    -257.02320041 Ry

     The total energy is F=E-TS. E is the sum of the following terms:
     one-electron contribution =     -27.91414399 Ry
     hartree contribution      =      25.82021238 Ry
     xc contribution           =    -123.78662559 Ry
     ewald contribution        =    -131.14264322 Ry

     convergence has been achieved in   9 iterations

     Forces acting on atoms (cartesian axes, Ry/au):

     atom    1 type  2   force =     0.00000000    0.00000000    0.00000000
     atom    2 type  2   force =     0.00000000    0.00000000    0.00000000
     atom    3 type  2   force =     0.00000000    0.00000000    0.00000000
     atom    4 type  2   force =     0.00000000    0.00000000    0.00000000
     atom    5 type  1   force =     0.00000000    0.00000000    0.00000000
     atom    6 type  1   force =     0.00000000    0.00000000    0.00000000
     atom    7 type  1   force =     0.00000000    0.00000000    0.00000000
     atom    8 type  1   force =     0.00000000    0.00000000    0.00000000
     The non-local contrib.  to forces
     atom    1 type  2   force =     0.00000000    0.00000000    0.00000000
     atom    2 type  2   force =     0.00000000    0.00000000    0.00000000
     atom    3 type  2   force =     0.00000000    0.00000000    0.00000000
     atom    4 type  2   force =     0.00000000    0.00000000    0.00000000
     atom    5 type  1   force =     0.00000000    0.00000000    0.00000000
     atom    6 type  1   force =     0.00000000    0.00000000    0.00000000
     atom    7 type  1   force =     0.00000000    0.00000000    0.00000000
     atom    8 type  1   force =     0.00000000    0.00000000    0.00000000
     The ionic contribution  to forces
     atom    1 type  2   force =    -0.00000000   -0.00000000   -0.00000000
     atom    2 type  2   force =    -0.00000000    0.00000000    0.00000000
     atom    3 type  2   force =     0.00000000   -0.00000000    0.00000000
     atom    4 type  2   force =     0.00000000    0.00000000   -0.00000000
     atom    5 type  1   force =    -0.00000000   -0.00000000    0.00000000
     atom    6 type  1   force =    -0.00000000    0.00000000   -0.00000000
     atom    7 type  1   force =     0.00000000   -0.00000000   -0.00000000
     atom    8 type  1   force =     0.00000000    0.00000000    0.00000000
     The local contribution  to forces
     atom    1 type  2   force =    -0.00000000   -0.00000000   -0.00000000
     atom    2 type  2   force =    -0.00000000    0.00000000    0.00000000
     atom    3 type  2   force =     0.00000000   -0.00000000    0.00000000
     atom    4 type  2   force =     0.00000000    0.00000000   -0.00000000
     atom    5 type  1   force =    -0.00000000   -0.00000000    0.00000000
     atom    6 type  1   force =    -0.00000000    0.00000000   -0.00000000
     atom    7 type  1   force =     0.00000000   -0.00000000   -0.00000000
     atom    8 type  1   force =     0.00000000    0.00000000    0.00000000
     The core correction contribution to forces
     atom    1 type  2   force =    -0.00000000   -0.00000000   -0.00000000
     atom    2 type  2   force =    -0.00000000   -0.00000000   -0.00000000
     atom    3 type  2   force =    -0.00000000   -0.00000000   -0.00000000
     atom    4 type  2   force =    -0.00000000   -0.00000000   -0.00000000
     atom    5 type  1   force =     0.00000000    0.00000000    0.00000000
     atom    6 type  1   force =     0.00000000    0.00000000    0.00000000
     atom    7 type  1   force =     0.00000000    0.00000000    0.00000000
     atom    8 type  1   force =     0.00000000    0.00000000    0.00000000
     The Hubbard contrib.    to forces
     atom    1 type  2   force =     0.00000000    0.00000000    0.00000000
     atom    2 type  2   force =     0.00000000    0.00000000    0.00000000
     atom    3 type  2   force =     0.00000000    0.00000000    0.00000000
     atom    4 type  2   force =     0.00000000    0.00000000    0.00000000
     atom    5 type  1   force =     0.00000000    0.00000000    0.00000000
     atom    6 type  1   force =     0.00000000    0.00000000    0.00000000
     atom    7 type  1   force =     0.00000000    0.00000000    0.00000000
     atom    8 type  1   force =     0.00000000    0.00000000    0.00000000
     The SCF correction term to forces
     atom    1 type  2   force =    -0.00000000    0.00000000   -0.00000000
     atom    2 type  2   force =    -0.00000000   -0.00000000   -0.00000000
     atom    3 type  2   force =     0.00000000   -0.00000000   -0.00000000
     atom    4 type  2   force =    -0.00000000    0.00000000    0.00000000
     atom    5 type  1   force =     0.00000000   -0.00000000    0.00000000
     atom    6 type  1   force =     0.00000000   -0.00000000   -0.00000000
     atom    7 type  1   force =    -0.00000000   -0.00000000   -0.00000000
     atom    8 type  1   force =    -0.00000000    0.00000000    0.00000000

     Total force =     0.000000     Total SCF correction =     0.000000


     Computing stress (Cartesian axis) and pressure

          total   stress  (Ry/bohr**3)                   (kbar)     P=        1.96
   0.00001334   0.00000000   0.00000000            1.96        0.00        0.00
   0.00000000   0.00001334   0.00000000            0.00        1.96        0.00
   0.00000000   0.00000000   0.00001334            0.00        0.00        1.96

     kinetic stress (kbar)   2806.56      0.00      0.00
                                0.00   2806.56      0.00
                                0.00      0.00   2806.56

     local   stress (kbar)  -3421.75      0.00     -0.00
                                0.00  -3421.75     -0.00
                               -0.00     -0.00  -3421.75

     nonloc. stress (kbar)   4808.92      0.00      0.00
                                0.00   4808.92      0.00
                                0.00      0.00   4808.92

     hartree stress (kbar)    720.83      0.00      0.00
                                0.00    720.83      0.00
                                0.00      0.00    720.83

     exc-cor stress (kbar)   6774.25     -0.00      0.00
                               -0.00   6774.25      0.00
                                0.00      0.00   6774.25

     corecor stress (kbar)  -8025.69     -0.00     -0.00
                               -0.00  -8025.69     -0.00
                               -0.00     -0.00  -8025.69

     ewald   stress (kbar)  -3661.17      0.00     -0.00
                                0.00  -3661.17     -0.00
                               -0.00     -0.00  -3661.17

     hubbard stress (kbar)      0.00      0.00      0.00
                                0.00      0.00      0.00
                                0.00      0.00      0.00

     DFT-D   stress (kbar)      0.00      0.00      0.00
                                0.00      0.00      0.00
                                0.00      0.00      0.00

     XDM     stress (kbar)      0.00      0.00      0.00
                                0.00      0.00      0.00
                                0.00      0.00      0.00

     dft-nl  stress (kbar)      0.00      0.00      0.00
                                0.00      0.00      0.00
                                0.00      0.00      0.00

     TS-vdW  stress (kbar)      0.00      0.00      0.00
                                0.00      0.00      0.00
                                0.00      0.00      0.00


     Energy error            =      2.6E-05
     Gradient error          =      0.0E+00
     Cell gradient error     =      1.3E-05


     number of scf cycles    =   2
     number of bfgs steps    =   1

     enthalpy old            =    -257.0231749031 Ry
     enthalpy new            =    -257.0232004140 Ry

     CASE: enthalpy_new < enthalpy_old


     WARNING: bfgs curvature condition failed, Theta= 0.846
     new trust radius        =       0.0032539486 bohr
     new conv_thr            =            1.0E-10 Ry

     new unit-cell volume =   1758.47702 a.u.^3 (   260.57941 Ang^3 )
     density =      3.41342 g/cm^3

CELL_PARAMETERS (alat= 12.06119589)
   1.000741387   0.000000000   0.000000000
   0.000000000   1.000741387   0.000000000
   0.000000000   0.000000000   1.000741387

ATOMIC_POSITIONS (crystal)
Cs            0.0000000000        0.0000000000        0.0000000000
Cs            0.0000000000        0.5000000000        0.5000000000
Cs            0.5000000000        0.0000000000        0.5000000000
Cs            0.5000000000        0.5000000000        0.0000000000
H             0.0000000000        0.0000000000        0.5000000000
H             0.0000000000        0.5000000000        0.0000000000
H             0.5000000000        0.0000000000        0.0000000000
H             0.5000000000        0.5000000000        0.5000000000



     Writing output data file ./CsAlH4_optgeo.save/
     NEW-OLD atomic charge density approx. for the potential
     extrapolated charge   40.04637, renormalised to   40.00000

     total cpu time spent up to now is      133.4 secs

     Self-consistent Calculation

     iteration #  1     ecut=    80.00 Ry     beta= 0.70
     Davidson diagonalization with overlap
     ethr =  1.00E-06,  avg # of iterations =  2.0

     Threshold (ethr) on eigenvalues was too large:
     Diagonalizing with lowered threshold

     Davidson diagonalization with overlap
     ethr =  4.02E-08,  avg # of iterations =  1.0

     total cpu time spent up to now is      143.8 secs

     total energy              =    -257.02319465 Ry
     estimated scf accuracy    <       0.00001658 Ry

     iteration #  2     ecut=    80.00 Ry     beta= 0.70
     Davidson diagonalization with overlap
     ethr =  4.14E-08,  avg # of iterations =  3.5

     total cpu time spent up to now is      151.1 secs

     total energy              =    -257.02322787 Ry
     estimated scf accuracy    <       0.00001938 Ry

     iteration #  3     ecut=    80.00 Ry     beta= 0.70
     Davidson diagonalization with overlap
     ethr =  4.14E-08,  avg # of iterations =  1.1

     total cpu time spent up to now is      155.6 secs

     total energy              =    -257.02322940 Ry
     estimated scf accuracy    <       0.00000442 Ry

     iteration #  4     ecut=    80.00 Ry     beta= 0.70
     Davidson diagonalization with overlap
     ethr =  1.11E-08,  avg # of iterations =  1.0

     total cpu time spent up to now is      159.7 secs

     total energy              =    -257.02322654 Ry
     estimated scf accuracy    <       0.00000535 Ry

     iteration #  5     ecut=    80.00 Ry     beta= 0.70
     Davidson diagonalization with overlap
     ethr =  1.11E-08,  avg # of iterations =  2.0

     total cpu time spent up to now is      165.4 secs

     total energy              =    -257.02322691 Ry
     estimated scf accuracy    <       0.00000049 Ry

     iteration #  6     ecut=    80.00 Ry     beta= 0.70
     Davidson diagonalization with overlap
     ethr =  1.24E-09,  avg # of iterations =  2.2

     total cpu time spent up to now is      171.3 secs

     total energy              =    -257.02322705 Ry
     estimated scf accuracy    <       0.00000066 Ry

     iteration #  7     ecut=    80.00 Ry     beta= 0.70
     Davidson diagonalization with overlap
     ethr =  1.24E-09,  avg # of iterations =  1.0

     total cpu time spent up to now is      175.6 secs

     total energy              =    -257.02322703 Ry
     estimated scf accuracy    <       0.00000022 Ry

     iteration #  8     ecut=    80.00 Ry     beta= 0.70
     Davidson diagonalization with overlap
     ethr =  5.50E-10,  avg # of iterations =  1.0

     total cpu time spent up to now is      179.8 secs

     total energy              =    -257.02322698 Ry
     estimated scf accuracy    <       0.00000013 Ry

     iteration #  9     ecut=    80.00 Ry     beta= 0.70
     Davidson diagonalization with overlap
     ethr =  3.14E-10,  avg # of iterations =  2.0

     total cpu time spent up to now is      184.7 secs

     total energy              =    -257.02322699 Ry
     estimated scf accuracy    <       0.00000002 Ry

     iteration # 10     ecut=    80.00 Ry     beta= 0.70
     Davidson diagonalization with overlap
     ethr =  4.55E-11,  avg # of iterations =  1.9

     total cpu time spent up to now is      189.4 secs

     total energy              =    -257.02322699 Ry
     estimated scf accuracy    <          8.9E-09 Ry

     iteration # 11     ecut=    80.00 Ry     beta= 0.70
     Davidson diagonalization with overlap
     ethr =  2.23E-11,  avg # of iterations =  2.0

     total cpu time spent up to now is      194.4 secs

     total energy              =    -257.02322699 Ry
     estimated scf accuracy    <          4.0E-09 Ry

     iteration # 12     ecut=    80.00 Ry     beta= 0.70
     Davidson diagonalization with overlap
     ethr =  1.00E-11,  avg # of iterations =  1.9

     total cpu time spent up to now is      199.1 secs

     total energy              =    -257.02322699 Ry
     estimated scf accuracy    <          4.9E-09 Ry

     iteration # 13     ecut=    80.00 Ry     beta= 0.70
     Davidson diagonalization with overlap
[...]
     1.6681   2.1578   2.1578   2.1779   6.5155   6.5155   6.5183   8.2010

     occupation numbers 
     1.0000   1.0000   1.0000   1.0000   1.0000   1.0000   1.0000   1.0000
     1.0000   1.0000   1.0000   1.0000   1.0000   1.0000   1.0000   1.0000
     1.0000   1.0000   1.0000   1.0000   0.0000   0.0000   0.0000   0.0000

          k = 0.0000 0.1418 0.2836 ( 21698 PWs)   bands (ev):

   -18.2838 -18.2296 -18.2167 -18.2139  -5.3751  -5.3578  -5.3568  -5.1852
    -5.1097  -5.0396  -5.0167  -5.0165  -5.0110  -4.9910  -4.8552  -4.8201
     1.9096   2.2572   2.3250   2.3381   6.6828   6.6836   6.7588   7.7642

     occupation numbers 
     1.0000   1.0000   1.0000   1.0000   1.0000   1.0000   1.0000   1.0000
     1.0000   1.0000   1.0000   1.0000   1.0000   1.0000   1.0000   1.0000
     1.0000   1.0000   1.0000   1.0000   0.0000   0.0000   0.0000   0.0000

          k = 0.0000 0.1418 0.4255 ( 21661 PWs)   bands (ev):

   -18.2664 -18.2471 -18.2157 -18.2147  -5.3218  -5.2805  -5.2655  -5.2569
    -5.1920  -5.1439  -5.0381  -5.0271  -4.9655  -4.9319  -4.9079  -4.8701
     2.1687   2.2963   2.4730   2.4774   6.9240   6.9538   7.1314   7.2954

     occupation numbers 
     1.0000   1.0000   1.0000   1.0000   1.0000   1.0000   1.0000   1.0000
     1.0000   1.0000   1.0000   1.0000   1.0000   1.0000   1.0000   1.0000
     1.0000   1.0000   1.0000   1.0000   0.0000   0.0000   0.0000   0.0000

          k = 0.0000 0.2836 0.2836 ( 21656 PWs)   bands (ev):

   -18.2735 -18.2270 -18.2270 -18.2162  -5.3608  -5.3608  -5.3079  -5.2634
    -5.1208  -5.0719  -5.0719  -4.9771  -4.9771  -4.9726  -4.8958  -4.8152
     2.1341   2.4330   2.4330   2.4878   6.6195   6.8871   6.8871   7.3079

     occupation numbers 
     1.0000   1.0000   1.0000   1.0000   1.0000   1.0000   1.0000   1.0000
     1.0000   1.0000   1.0000   1.0000   1.0000   1.0000   1.0000   1.0000
     1.0000   1.0000   1.0000   1.0000   0.0000   0.0000   0.0000   0.0000

          k = 0.0000 0.2836 0.4255 ( 21659 PWs)   bands (ev):

   -18.2585 -18.2419 -18.2234 -18.2195  -5.3532  -5.3221  -5.3140  -5.2342
    -5.2303  -5.1500  -5.0163  -4.9617  -4.9562  -4.9535  -4.9055  -4.8464
     2.3747   2.4860   2.5952   2.6145   6.6135   6.8041   6.8913   6.9410

     occupation numbers 
     1.0000   1.0000   1.0000   1.0000   1.0000   1.0000   1.0000   1.0000
     1.0000   1.0000   1.0000   1.0000   1.0000   1.0000   1.0000   1.0000
     1.0000   1.0000   1.0000   1.0000   0.0000   0.0000   0.0000   0.0000

          k = 0.0000 0.4255 0.4255 ( 21638 PWs)   bands (ev):

   -18.2472 -18.2346 -18.2346 -18.2266  -5.3566  -5.3516  -5.3516  -5.3077
    -5.1659  -5.0882  -5.0882  -5.0181  -4.9093  -4.8936  -4.8936  -4.8528
     2.5901   2.6728   2.6728   2.7202   6.4324   6.5317   6.5317   6.5948

     occupation numbers 
     1.0000   1.0000   1.0000   1.0000   1.0000   1.0000   1.0000   1.0000
     1.0000   1.0000   1.0000   1.0000   1.0000   1.0000   1.0000   1.0000
     1.0000   1.0000   1.0000   1.0000   0.0000   0.0000   0.0000   0.0000

          k = 0.1418 0.1418 0.1418 ( 21683 PWs)   bands (ev):

   -18.2918 -18.2175 -18.2175 -18.2175  -5.4008  -5.4008  -5.4008  -5.0911
    -5.0911  -5.0911  -5.0120  -5.0120  -5.0120  -4.9549  -4.8085  -4.8085
     1.7609   2.2255   2.2255   2.2255   6.5643   6.5643   6.5643   7.6991

     occupation numbers 
     1.0000   1.0000   1.0000   1.0000   1.0000   1.0000   1.0000   1.0000
     1.0000   1.0000   1.0000   1.0000   1.0000   1.0000   1.0000   1.0000
     1.0000   1.0000   1.0000   1.0000   0.0000   0.0000   0.0000   0.0000

          k = 0.1418 0.1418 0.2836 ( 21665 PWs)   bands (ev):

   -18.2803 -18.2289 -18.2173 -18.2173  -5.3751  -5.3751  -5.3660  -5.1428
    -5.1428  -5.0693  -5.0306  -5.0039  -5.0039  -4.9814  -4.8406  -4.8259
     1.9954   2.3275   2.3883   2.3883   6.6850   6.6850   6.6860   7.3023

     occupation numbers 
     1.0000   1.0000   1.0000   1.0000   1.0000   1.0000   1.0000   1.0000
     1.0000   1.0000   1.0000   1.0000   1.0000   1.0000   1.0000   1.0000
     1.0000   1.0000   1.0000   1.0000   0.0000   0.0000   0.0000   0.0000

          k = 0.1418 0.1418 0.4255 ( 21667 PWs)   bands (ev):

   -18.2638 -18.2454 -18.2172 -18.2172  -5.3499  -5.3499  -5.2962  -5.1923
    -5.1799  -5.1799  -5.0063  -5.0063  -4.9531  -4.9367  -4.8865  -4.8789
     2.2477   2.3705   2.5319   2.5319   6.7930   6.7930   6.8089   6.9656

     occupation numbers 
     1.0000   1.0000   1.0000   1.0000   1.0000   1.0000   1.0000   1.0000
     1.0000   1.0000   1.0000   1.0000   1.0000   1.0000   1.0000   1.0000
     1.0000   1.0000   1.0000   1.0000   0.0000   0.0000   0.0000   0.0000

          k = 0.1418 0.2836 0.2836 ( 21653 PWs)   bands (ev):

   -18.2706 -18.2270 -18.2270 -18.2190  -5.3860  -5.3860  -5.3826  -5.1791
    -5.1643  -5.0608  -5.0608  -4.9662  -4.9662  -4.9649  -4.8683  -4.8231
     2.2131   2.4987   2.4987   2.5407   6.5329   6.6332   6.6332   6.9006

     occupation numbers 
     1.0000   1.0000   1.0000   1.0000   1.0000   1.0000   1.0000   1.0000
     1.0000   1.0000   1.0000   1.0000   1.0000   1.0000   1.0000   1.0000
     1.0000   1.0000   1.0000   1.0000   0.0000   0.0000   0.0000   0.0000

          k = 0.1418 0.2836 0.4255 ( 21661 PWs)   bands (ev):

   -18.2565 -18.2410 -18.2243 -18.2214  -5.4001  -5.3970  -5.3571  -5.2841
    -5.1441  -5.1022  -4.9825  -4.9525  -4.9488  -4.9185  -4.9090  -4.8528
     2.4477   2.5550   2.6566   2.6716   6.4247   6.4805   6.5167   6.5920

     occupation numbers 
     1.0000   1.0000   1.0000   1.0000   1.0000   1.0000   1.0000   1.0000
     1.0000   1.0000   1.0000   1.0000   1.0000   1.0000   1.0000   1.0000
     1.0000   1.0000   1.0000   1.0000   0.0000   0.0000   0.0000   0.0000

          k = 0.1418 0.4255 0.4255 ( 21666 PWs)   bands (ev):

   -18.2461 -18.2346 -18.2346 -18.2276  -5.4207  -5.4060  -5.4060  -5.3640
    -5.0917  -5.0338  -5.0338  -4.9711  -4.9063  -4.8931  -4.8931  -4.8554
     2.6581   2.7375   2.7375   2.7811   6.2068   6.2526   6.2526   6.3015

     occupation numbers 
     1.0000   1.0000   1.0000   1.0000   1.0000   1.0000   1.0000   1.0000
     1.0000   1.0000   1.0000   1.0000   1.0000   1.0000   1.0000   1.0000
     1.0000   1.0000   1.0000   1.0000   0.0000   0.0000   0.0000   0.0000

          k = 0.2836 0.2836 0.2836 ( 21677 PWs)   bands (ev):

   -18.2625 -18.2268 -18.2268 -18.2268  -5.4344  -5.4344  -5.4344  -5.2867
    -5.0426  -5.0426  -5.0426  -4.9432  -4.9432  -4.9432  -4.8450  -4.8450
     2.4152   2.6592   2.6592   2.6592   6.3042   6.3042   6.3042   6.4774

     occupation numbers 
     1.0000   1.0000   1.0000   1.0000   1.0000   1.0000   1.0000   1.0000
     1.0000   1.0000   1.0000   1.0000   1.0000   1.0000   1.0000   1.0000
     1.0000   1.0000   1.0000   1.0000   0.0000   0.0000   0.0000   0.0000

          k = 0.2836 0.2836 0.4255 ( 21669 PWs)   bands (ev):

   -18.2510 -18.2382 -18.2267 -18.2267  -5.4681  -5.4681  -5.4343  -5.3812
    -5.0311  -5.0311  -4.9373  -4.9267  -4.9267  -4.9117  -4.8767  -4.8673
     2.6340   2.7279   2.8044   2.8044   6.0793   6.0793   6.1176   6.1781

     occupation numbers 
     1.0000   1.0000   1.0000   1.0000   1.0000   1.0000   1.0000   1.0000
     1.0000   1.0000   1.0000   1.0000   1.0000   1.0000   1.0000   1.0000
     1.0000   1.0000   1.0000   1.0000   0.0000   0.0000   0.0000   0.0000

          k = 0.2836 0.4255 0.4255 ( 21673 PWs)   bands (ev):

   -18.2431 -18.2344 -18.2344 -18.2303  -5.5032  -5.4907  -5.4907  -5.4589
    -4.9812  -4.9493  -4.9493  -4.9026  -4.8981  -4.8917  -4.8917  -4.8628
     2.8308   2.8979   2.8979   2.9278   5.8289   5.8479   5.8479   5.8895

     occupation numbers 
     1.0000   1.0000   1.0000   1.0000   1.0000   1.0000   1.0000   1.0000
     1.0000   1.0000   1.0000   1.0000   1.0000   1.0000   1.0000   1.0000
     1.0000   1.0000   1.0000   1.0000   0.0000   0.0000   0.0000   0.0000

          k = 0.4255 0.4255 0.4255 ( 21701 PWs)   bands (ev):

   -18.2388 -18.2342 -18.2342 -18.2342  -5.5428  -5.5428  -5.5428  -5.5265
    -4.9015  -4.9015  -4.9015  -4.8864  -4.8864  -4.8864  -4.8738  -4.8738
     3.0075   3.0471   3.0471   3.0471   5.5781   5.5781   5.5781   5.6046

     occupation numbers 
     1.0000   1.0000   1.0000   1.0000   1.0000   1.0000   1.0000   1.0000
     1.0000   1.0000   1.0000   1.0000   1.0000   1.0000   1.0000   1.0000
     1.0000   1.0000   1.0000   1.0000   0.0000   0.0000   0.0000   0.0000

     the Fermi energy is     3.8945 ev

!    total energy              =    -257.02344815 Ry
     estimated scf accuracy    <          6.6E-11 Ry
     smearing contrib. (-TS)   =       0.00000000 Ry
     internal energy E=F+TS    =    -257.02344815 Ry

     The total energy is F=E-TS. E is the sum of the following terms:
     one-electron contribution =     -29.28982349 Ry
     hartree contribution      =      26.26524962 Ry
     xc contribution           =    -123.76208852 Ry
     ewald contribution        =    -130.23678577 Ry

     convergence has been achieved in   9 iterations

     Forces acting on atoms (cartesian axes, Ry/au):

     atom    1 type  2   force =     0.00000000    0.00000000    0.00000000
     atom    2 type  2   force =     0.00000000    0.00000000    0.00000000
     atom    3 type  2   force =     0.00000000    0.00000000    0.00000000
     atom    4 type  2   force =     0.00000000    0.00000000    0.00000000
     atom    5 type  1   force =     0.00000000    0.00000000    0.00000000
     atom    6 type  1   force =     0.00000000    0.00000000    0.00000000
     atom    7 type  1   force =     0.00000000    0.00000000    0.00000000
     atom    8 type  1   force =     0.00000000    0.00000000    0.00000000
     The non-local contrib.  to forces
     atom    1 type  2   force =     0.00000000    0.00000000    0.00000000
     atom    2 type  2   force =     0.00000000    0.00000000    0.00000000
     atom    3 type  2   force =     0.00000000    0.00000000    0.00000000
     atom    4 type  2   force =     0.00000000    0.00000000    0.00000000
     atom    5 type  1   force =     0.00000000    0.00000000    0.00000000
     atom    6 type  1   force =     0.00000000    0.00000000    0.00000000
     atom    7 type  1   force =     0.00000000    0.00000000    0.00000000
     atom    8 type  1   force =     0.00000000    0.00000000    0.00000000
     The ionic contribution  to forces
     atom    1 type  2   force =    -0.00000000   -0.00000000   -0.00000000
     atom    2 type  2   force =    -0.00000000    0.00000000    0.00000000
     atom    3 type  2   force =     0.00000000   -0.00000000    0.00000000
     atom    4 type  2   force =     0.00000000    0.00000000   -0.00000000
     atom    5 type  1   force =    -0.00000000   -0.00000000    0.00000000
     atom    6 type  1   force =    -0.00000000    0.00000000   -0.00000000
     atom    7 type  1   force =     0.00000000   -0.00000000   -0.00000000
     atom    8 type  1   force =     0.00000000    0.00000000    0.00000000
     The local contribution  to forces
     atom    1 type  2   force =    -0.00000000   -0.00000000   -0.00000000
     atom    2 type  2   force =    -0.00000000    0.00000000    0.00000000
     atom    3 type  2   force =     0.00000000   -0.00000000    0.00000000
     atom    4 type  2   force =     0.00000000    0.00000000   -0.00000000
     atom    5 type  1   force =    -0.00000000    0.00000000    0.00000000
     atom    6 type  1   force =    -0.00000000    0.00000000   -0.00000000
     atom    7 type  1   force =     0.00000000   -0.00000000   -0.00000000
     atom    8 type  1   force =     0.00000000    0.00000000    0.00000000
     The core correction contribution to forces
     atom    1 type  2   force =    -0.00000000   -0.00000000   -0.00000000
     atom    2 type  2   force =    -0.00000000   -0.00000000   -0.00000000
     atom    3 type  2   force =    -0.00000000   -0.00000000   -0.00000000
     atom    4 type  2   force =    -0.00000000   -0.00000000   -0.00000000
     atom    5 type  1   force =     0.00000000    0.00000000    0.00000000
     atom    6 type  1   force =     0.00000000    0.00000000    0.00000000
     atom    7 type  1   force =     0.00000000    0.00000000    0.00000000
     atom    8 type  1   force =     0.00000000    0.00000000    0.00000000
     The Hubbard contrib.    to forces
     atom    1 type  2   force =     0.00000000    0.00000000    0.00000000
     atom    2 type  2   force =     0.00000000    0.00000000    0.00000000
     atom    3 type  2   force =     0.00000000    0.00000000    0.00000000
     atom    4 type  2   force =     0.00000000    0.00000000    0.00000000
     atom    5 type  1   force =     0.00000000    0.00000000    0.00000000
     atom    6 type  1   force =     0.00000000    0.00000000    0.00000000
     atom    7 type  1   force =     0.00000000    0.00000000    0.00000000
     atom    8 type  1   force =     0.00000000    0.00000000    0.00000000
     The SCF correction term to forces
     atom    1 type  2   force =    -0.00000000    0.00000000    0.00000000
     atom    2 type  2   force =     0.00000000    0.00000000    0.00000000
     atom    3 type  2   force =    -0.00000000    0.00000000    0.00000000
     atom    4 type  2   force =    -0.00000000    0.00000000    0.00000000
     atom    5 type  1   force =     0.00000000    0.00000000   -0.00000000
     atom    6 type  1   force =    -0.00000000   -0.00000000   -0.00000000
     atom    7 type  1   force =    -0.00000000   -0.00000000   -0.00000000
     atom    8 type  1   force =     0.00000000   -0.00000000   -0.00000000

     Total force =     0.000000     Total SCF correction =     0.000000


     Computing stress (Cartesian axis) and pressure

          total   stress  (Ry/bohr**3)                   (kbar)     P=        0.01
   0.00000008   0.00000000   0.00000000            0.01        0.00        0.00
   0.00000000   0.00000008   0.00000000            0.00        0.01        0.00
   0.00000000   0.00000000   0.00000008            0.00        0.00        0.01

     kinetic stress (kbar)   2746.07      0.00      0.00
                                0.00   2746.07      0.00
                                0.00      0.00   2746.07

     local   stress (kbar)  -3387.54     -0.00     -0.00
                               -0.00  -3387.54      0.00
                               -0.00      0.00  -3387.54

     nonloc. stress (kbar)   4709.47      0.00      0.00
                                0.00   4709.47      0.00
                                0.00      0.00   4709.47

     hartree stress (kbar)    718.17      0.00      0.00
                                0.00    718.17     -0.00
                                0.00     -0.00    718.17

     exc-cor stress (kbar)   6635.37     -0.00     -0.00
                               -0.00   6635.37      0.00
                               -0.00      0.00   6635.37

     corecor stress (kbar)  -7860.48     -0.00     -0.00
                               -0.00  -7860.48      0.00
                               -0.00      0.00  -7860.48

     ewald   stress (kbar)  -3561.05     -0.00      0.00
                               -0.00  -3561.05      0.00
                                0.00      0.00  -3561.05

     hubbard stress (kbar)      0.00      0.00      0.00
                                0.00      0.00      0.00
                                0.00      0.00      0.00

     DFT-D   stress (kbar)      0.00      0.00      0.00
                                0.00      0.00      0.00
                                0.00      0.00      0.00

     XDM     stress (kbar)      0.00      0.00      0.00
                                0.00      0.00      0.00
                                0.00      0.00      0.00

     dft-nl  stress (kbar)      0.00      0.00      0.00
                                0.00      0.00      0.00
                                0.00      0.00      0.00

     TS-vdW  stress (kbar)      0.00      0.00      0.00
                                0.00      0.00      0.00
                                0.00      0.00      0.00



     Writing output data file ./CsAlH4_optgeo.save/

     init_run     :     10.96s CPU     11.18s WALL (       2 calls)
     electrons    :    683.86s CPU    703.31s WALL (       9 calls)
     update_pot   :     15.44s CPU     15.46s WALL (       7 calls)
     forces       :     20.80s CPU     21.18s WALL (       9 calls)
     stress       :     34.32s CPU     35.04s WALL (       9 calls)

     Called by init_run:
     wfcinit      :      7.36s CPU      7.45s WALL (       2 calls)
     wfcinit:atom :      0.06s CPU      0.06s WALL (      40 calls)
     wfcinit:wfcr :      6.97s CPU      7.06s WALL (      40 calls)
     potinit      :      1.34s CPU      1.35s WALL (       2 calls)
     hinit0       :      1.88s CPU      1.91s WALL (       2 calls)

     Called by electrons:
     c_bands      :    582.44s CPU    590.64s WALL (     124 calls)
     sum_band     :     78.34s CPU     85.44s WALL (     124 calls)
     v_of_rho     :      4.62s CPU      4.95s WALL (     130 calls)
     v_h          :      0.30s CPU      0.31s WALL (     130 calls)
     v_xc         :      4.93s CPU      5.29s WALL (     148 calls)
     newd         :     17.97s CPU     22.15s WALL (     130 calls)
     mix_rho      :      1.32s CPU      1.38s WALL (     124 calls)

     Called by c_bands:
     init_us_2    :      8.37s CPU      8.42s WALL (    5360 calls)
     cegterg      :    552.05s CPU    560.16s WALL (    2480 calls)

     Called by sum_band:
     sum_band:wei :      0.01s CPU      0.01s WALL (     124 calls)
     sum_band:loo :     63.69s CPU     65.09s WALL (     124 calls)
     sum_band:buf :      1.08s CPU      1.08s WALL (    2480 calls)
     sum_band:ini :      3.50s CPU      3.51s WALL (    2480 calls)
     sum_band:cal :     28.48s CPU     29.03s WALL (    2480 calls)
     sum_band:bec :      0.13s CPU      0.13s WALL (    2480 calls)
     addusdens    :     13.16s CPU     18.75s WALL (     124 calls)
     addusd:skk   :      0.10s CPU      0.10s WALL (     248 calls)
     addusd:dgemm :      6.87s CPU     12.08s WALL (     248 calls)
     addusd:qvan2 :      4.78s CPU      4.78s WALL (     248 calls)

     Called by *egterg:
     cdiaghg      :      8.99s CPU      9.03s WALL (    8293 calls)
     cegterg:over :     65.90s CPU     66.17s WALL (    6013 calls)
     cegterg:upda :     30.98s CPU     31.03s WALL (    6013 calls)
     cegterg:last :     63.80s CPU     64.01s WALL (    4804 calls)
     cdiaghg:chol :      0.83s CPU      0.84s WALL (    8293 calls)
     cdiaghg:inve :      0.14s CPU      0.14s WALL (    8293 calls)
     cdiaghg:para :      1.74s CPU      1.75s WALL (   16586 calls)
     h_psi        :    296.15s CPU    303.62s WALL (    8533 calls)
     s_psi        :     63.48s CPU     63.65s WALL (    8533 calls)
     g_psi        :      2.30s CPU      2.31s WALL (    6013 calls)

     Called by h_psi:
     h_psi:calbec :     77.00s CPU     78.70s WALL (    8533 calls)
     vloc_psi     :    153.49s CPU    159.18s WALL (    8533 calls)
     add_vuspsi   :     64.31s CPU     64.42s WALL (    8533 calls)

     General routines
     calbec       :    116.35s CPU    118.64s WALL (   11913 calls)
     fft          :      3.51s CPU      3.68s WALL (    1907 calls)
     ffts         :      0.23s CPU      0.24s WALL (     254 calls)
     fftw         :    157.14s CPU    162.73s WALL (  374994 calls)
     interpolate  :      0.35s CPU      0.37s WALL (     130 calls)

     Parallel routines
     fft_scatt_xy :     22.14s CPU     22.91s WALL (  377155 calls)
     fft_scatt_yz :     63.31s CPU     65.56s WALL (  377155 calls)

     PWSCF        :  12m46.54s CPU  13m 7.89s WALL


   This run was terminated on:  17:26:24  27Nov2023            

=------------------------------------------------------------------------------=
   JOB DONE.
=------------------------------------------------------------------------------=
