
     Program PWSCF v.7.0 starts on  5Dec2023 at 16:15:57 

     This program is part of the open-source Quantum ESPRESSO suite
     for quantum simulation of materials; please cite
         "P. Giannozzi et al., J. Phys.:Condens. Matter 21 395502 (2009);
         "P. Giannozzi et al., J. Phys.:Condens. Matter 29 465901 (2017);
         "P. Giannozzi et al., J. Chem. Phys. 152 154105 (2020);
          URL http://www.quantum-espresso.org", 
     in publications or presentations arising from this work. More details at
     http://www.quantum-espresso.org/quote

     Parallel version (MPI & OpenMP), running on      48 processor cores
     Number of MPI processes:                48
     Threads/MPI process:                     1

     MPI processes distributed on     2 nodes
     R & G space division:  proc/nbgrp/npool/nimage =      48
     211786 MiB available memory on the printing compute node when the environment starts
 
     Waiting for input...
     Reading input from standard input

     Current dimensions of program PWSCF are:
     Max number of different atomic species (ntypx) = 10
     Max number of k-points (npk) =  40000
     Max angular momentum in pseudopotentials (lmaxx) =  4

     File ./basic.update deleted, as requested

     File ./basic.bfgs deleted, as requested
     file K_PSEUDO: wavefunction(s)  3S renormalized
     file Al_PSEUDO: wavefunction(s)  3S 3P renormalized

     IMPORTANT: XC functional enforced from input :
     Exchange-correlation= PBE
                           (   1   4   3   4   0   0   0)
     Any further DFT definition will be discarded
     Please, verify this is what you really want

     Message from routine setup:
     using ibrav=0 with symmetry is DISCOURAGED, use correct ibrav instead

     Subspace diagonalization in iterative solution of the eigenvalue problem:
     one sub-group per band group will be used
     scalapack distributed-memory algorithm (size of sub-group:  6*  6 procs)

 
     Parallelization info
     --------------------
     sticks:   dense  smooth     PW     G-vecs:    dense   smooth      PW
     Min          74      74     20                 5060     5060     716
     Max          75      75     21                 5066     5066     721
     Sum        3569    3569    973               242967   242967   34473
 
     Using Slab Decomposition
 


     bravais-lattice index     =            0
     lattice parameter (alat)  =      12.6114  a.u.
     unit-cell volume          =    3872.4256 (a.u.)^3
     number of atoms/cell      =           44
     number of atomic types    =            3
     number of electrons       =       136.00
     number of Kohn-Sham states=           82
     kinetic-energy cutoff     =      60.0000  Ry
     charge density cutoff     =     240.0000  Ry
     scf convergence threshold =      1.0E-08
     mixing beta               =       0.7000
     number of iterations used =            8  plain     mixing
     energy convergence thresh.=      1.0E-04
     force convergence thresh. =      1.0E-03
     press convergence thresh. =      5.0E-01
     Exchange-correlation= PBE
                           (   1   4   3   4   0   0   0)
     nstep                     =           50


     celldm(1)=  12.611352  celldm(2)=   0.000000  celldm(3)=   0.000000
     celldm(4)=   0.000000  celldm(5)=   0.000000  celldm(6)=   0.000000

     crystal axes: (cart. coord. in units of alat)
               a(1) = (   1.081822   0.000000   0.000000 )  
               a(2) = (   0.000000   1.081822   0.000000 )  
               a(3) = (   0.000000   0.000000   1.649630 )  

     reciprocal axes: (cart. coord. in units 2 pi/alat)
               b(1) = (  0.924367  0.000000  0.000000 )  
               b(2) = (  0.000000  0.924367  0.000000 )  
               b(3) = (  0.000000  0.000000  0.606196 )  


     PseudoPot. # 1 for K  read from file:
     ./K_PSEUDO
     MD5 check sum: 7d58810084cac21f60fbe77ea2b688fd
     Pseudo is Projector augmented-wave + core cor, Zval =  9.0
     Generated using "atomic" code by A. Dal Corso  v.5.1
     Shape of augmentation charge: PSQ
     Using radial grid of 1165 points,  6 beta functions with: 
                l(1) =   0
                l(2) =   0
                l(3) =   1
                l(4) =   1
                l(5) =   2
                l(6) =   2
     Q(r) pseudized with 0 coefficients 


     PseudoPot. # 2 for H  read from file:
     ./H_PSEUDO
     MD5 check sum: f52b6d4d1c606e5624b1dc7b2218f220
     Pseudo is Ultrasoft, Zval =  1.0
     Generated using "atomic" code by A. Dal Corso  v.5.1
     Using radial grid of  929 points,  2 beta functions with: 
                l(1) =   0
                l(2) =   0
     Q(r) pseudized with 0 coefficients 


     PseudoPot. # 3 for Al read from file:
     ./Al_PSEUDO
     MD5 check sum: cfc449ca30b5f3223ec38ddd88ac046d
     Pseudo is Projector augmented-wave + core cor, Zval =  3.0
     Generated using "atomic" code by A. Dal Corso  v.5.1
     Shape of augmentation charge: PSQ
     Using radial grid of 1135 points,  6 beta functions with: 
                l(1) =   0
                l(2) =   0
                l(3) =   1
                l(4) =   1
                l(5) =   2
                l(6) =   2
     Q(r) pseudized with 0 coefficients 


     atomic species   valence    mass     pseudopotential
        K              9.00    39.09830     K ( 1.00)
        H              1.00     1.00750     H ( 1.00)
        Al             3.00    26.98100     Al( 1.00)

     16 Sym. Ops., with inversion, found ( 8 have fractional translation)



   Cartesian axes

     site n.     atom                  positions (alat units)
         1           Al  tau(   1) = (   0.0000000   0.5409110   0.0000000  )
         2           Al  tau(   2) = (   0.5409110   0.0000000   0.8248151  )
         3           Al  tau(   3) = (   0.0000000   0.5409110   0.8248151  )
         4           Al  tau(   4) = (   0.5409110   0.0000000   0.0000000  )
         5           Al  tau(   5) = (   0.0000000   0.0000000   0.0000000  )
         6           Al  tau(   6) = (   0.5409110   0.5409110   0.8248151  )
         7           K   tau(   7) = (   0.2290916   0.3118193   0.4124075  )
         8           K   tau(   8) = (   0.3118193   0.8527303   0.4124075  )
         9           K   tau(   9) = (   0.3118193   0.8527303   1.2372226  )
        10           K   tau(  10) = (   0.2290916   0.3118193   1.2372226  )
        11           K   tau(  11) = (   0.8527303   0.7700026   0.4124075  )
        12           K   tau(  12) = (   0.8527303   0.7700026   1.2372226  )
        13           K   tau(  13) = (   0.7700026   0.2290916   0.4124075  )
        14           K   tau(  14) = (   0.7700026   0.2290916   1.2372226  )
        15           K   tau(  15) = (   0.0000000   0.0000000   0.8248151  )
        16           K   tau(  16) = (   0.5409110   0.5409110   0.0000000  )
        17           H   tau(  17) = (   0.0486194   0.7243248   0.6431088  )
        18           H   tau(  18) = (   0.4922916   0.1834139   0.1817063  )
        19           H   tau(  19) = (   0.8984081   0.4922916   0.1817063  )
        20           H   tau(  20) = (   0.4922916   0.1834139   1.4679239  )
        21           H   tau(  21) = (   0.8984081   0.4922916   1.4679239  )
        22           H   tau(  22) = (   1.0332026   0.3574971   0.6431088  )
        23           H   tau(  23) = (   0.7243248   1.0332026   0.6431088  )
        24           H   tau(  24) = (   1.0332026   0.3574971   1.0065213  )
        25           H   tau(  25) = (   0.7243248   1.0332026   1.0065213  )
        26           H   tau(  26) = (   0.3574971   0.0486194   0.6431088  )
        27           H   tau(  27) = (   0.0486194   0.7243248   1.0065213  )
        28           H   tau(  28) = (   0.3574971   0.0486194   1.0065213  )
        29           H   tau(  29) = (   0.5895304   0.8984081   0.1817063  )
        30           H   tau(  30) = (   0.1834139   0.5895304   0.1817063  )
        31           H   tau(  31) = (   0.5895304   0.8984081   1.4679239  )
        32           H   tau(  32) = (   0.1834139   0.5895304   1.4679239  )
        33           H   tau(  33) = (   0.0807722   0.2660500   0.0000000  )
        34           H   tau(  34) = (   0.4601388   0.8069610   0.8248151  )
        35           H   tau(  35) = (   0.2748610   0.4601388   0.8248151  )
        36           H   tau(  36) = (   1.0010497   0.8157719   0.0000000  )
        37           H   tau(  37) = (   0.2660500   1.0010497   0.0000000  )
        38           H   tau(  38) = (   0.8157719   0.0807722   0.0000000  )
        39           H   tau(  39) = (   0.6216832   0.2748610   0.8248151  )
        40           H   tau(  40) = (   0.8069610   0.6216832   0.8248151  )
        41           H   tau(  41) = (   0.0000000   0.0000000   0.2724397  )
        42           H   tau(  42) = (   0.5409110   0.5409110   0.5523753  )
        43           H   tau(  43) = (   0.5409110   0.5409110   1.0972548  )
        44           H   tau(  44) = (   0.0000000   0.0000000   1.3771904  )

     number of k points=   288  Marzari-Vanderbilt smearing, width (Ry)=  0.0050

     Number of k-points >= 100: set verbosity='high' to print them.

     Dense  grid:   242967 G-vectors     FFT dimensions: (  72,  72, 108)

     Estimated max dynamical RAM per process >     264.02 MB

     Estimated total dynamical RAM >      12.38 GB

     Check: negative core charge=   -0.000003

     Initial potential from superposition of free atoms

     starting charge     135.7977, renormalised to     136.0000
     Starting wfcs are  132 randomized atomic wfcs
     Checking if some PAW data can be deallocated... 

     total cpu time spent up to now is       34.0 secs

     Self-consistent Calculation

     iteration #  1     ecut=    60.00 Ry     beta= 0.70
     Davidson diagonalization with overlap
     ethr =  1.00E-02,  avg # of iterations =  6.9

     total cpu time spent up to now is      121.5 secs

     total energy              =   -1399.98622378 Ry
     estimated scf accuracy    <       2.23835250 Ry

     iteration #  2     ecut=    60.00 Ry     beta= 0.70
     Davidson diagonalization with overlap
     ethr =  1.65E-03,  avg # of iterations =  2.0

     total cpu time spent up to now is      188.0 secs

     total energy              =   -1400.30125877 Ry
     estimated scf accuracy    <       0.04867014 Ry

     iteration #  3     ecut=    60.00 Ry     beta= 0.70
     Davidson diagonalization with overlap
     c_bands:  1 eigenvalues not converged
     c_bands:  1 eigenvalues not converged
     c_bands:  1 eigenvalues not converged
     c_bands:  1 eigenvalues not converged
     c_bands:  1 eigenvalues not converged
     ethr =  3.58E-05,  avg # of iterations = 13.4

     total cpu time spent up to now is      330.4 secs

     total energy              =   -1400.32341447 Ry
     estimated scf accuracy    <       0.00783356 Ry

     iteration #  4     ecut=    60.00 Ry     beta= 0.70
     Davidson diagonalization with overlap
     c_bands:  1 eigenvalues not converged
     c_bands:  1 eigenvalues not converged
     c_bands:  1 eigenvalues not converged
     c_bands:  1 eigenvalues not converged
     ethr =  5.76E-06,  avg # of iterations =  6.6

     total cpu time spent up to now is      417.3 secs

     total energy              =   -1400.32583470 Ry
     estimated scf accuracy    <       0.00079687 Ry

     iteration #  5     ecut=    60.00 Ry     beta= 0.70
     Davidson diagonalization with overlap
     c_bands:  1 eigenvalues not converged
     c_bands:  1 eigenvalues not converged
     ethr =  5.86E-07,  avg # of iterations =  2.4

     total cpu time spent up to now is      484.9 secs

     total energy              =   -1400.32603757 Ry
     estimated scf accuracy    <       0.00004236 Ry

     iteration #  6     ecut=    60.00 Ry     beta= 0.70
     Davidson diagonalization with overlap
     ethr =  3.11E-08,  avg # of iterations =  4.0

     total cpu time spent up to now is      561.0 secs

     total energy              =   -1400.32605456 Ry
     estimated scf accuracy    <       0.00000700 Ry

     iteration #  7     ecut=    60.00 Ry     beta= 0.70
     Davidson diagonalization with overlap
     ethr =  5.15E-09,  avg # of iterations =  2.6

     total cpu time spent up to now is      627.8 secs

     total energy              =   -1400.32605614 Ry
     estimated scf accuracy    <       0.00000031 Ry

     iteration #  8     ecut=    60.00 Ry     beta= 0.70
     Davidson diagonalization with overlap
     ethr =  2.30E-10,  avg # of iterations =  4.1

     total cpu time spent up to now is      718.9 secs

     total energy              =   -1400.32605633 Ry
     estimated scf accuracy    <       0.00000005 Ry

     iteration #  9     ecut=    60.00 Ry     beta= 0.70
     Davidson diagonalization with overlap
     ethr =  3.43E-11,  avg # of iterations =  2.0

     total cpu time spent up to now is      783.8 secs

     End of self-consistent calculation

     Number of k-points >= 100: set verbosity='high' to print the bands.

     the Fermi energy is     4.5316 ev

!    total energy              =   -1400.32605633 Ry
     estimated scf accuracy    <          1.1E-09 Ry
     smearing contrib. (-TS)   =       0.00000000 Ry
     internal energy E=F+TS    =   -1400.32605633 Ry

     The total energy is F=E-TS. E is the sum of the following terms:
     one-electron contribution =    -218.79843091 Ry
     hartree contribution      =     152.68866763 Ry
     xc contribution           =    -148.45883580 Ry
     ewald contribution        =    -423.60995222 Ry
     one-center paw contrib.   =    -762.14750503 Ry

     convergence has been achieved in   9 iterations

     Forces acting on atoms (cartesian axes, Ry/au):

     atom    1 type  3   force =     0.00000000    0.00000000   -0.00000000
     atom    2 type  3   force =     0.00000000    0.00000000    0.00000000
     atom    3 type  3   force =     0.00000000    0.00000000   -0.00000000
     atom    4 type  3   force =     0.00000000    0.00000000   -0.00000000
     atom    5 type  3   force =     0.00000000    0.00000000    0.00000000
     atom    6 type  3   force =     0.00000000    0.00000000    0.00000000
     atom    7 type  1   force =    -0.00110725    0.00110725   -0.00000000
     atom    8 type  1   force =     0.00110725    0.00110725   -0.00000000
     atom    9 type  1   force =     0.00110725    0.00110725    0.00000000
     atom   10 type  1   force =    -0.00110725    0.00110725    0.00000000
     atom   11 type  1   force =     0.00110725   -0.00110725   -0.00000000
     atom   12 type  1   force =     0.00110725   -0.00110725    0.00000000
     atom   13 type  1   force =    -0.00110725   -0.00110725   -0.00000000
     atom   14 type  1   force =    -0.00110725   -0.00110725    0.00000000
     atom   15 type  1   force =     0.00000000    0.00000000    0.00000000
     atom   16 type  1   force =     0.00000000    0.00000000    0.00000000
     atom   17 type  2   force =    -0.00096249   -0.01188493    0.00952121
     atom   18 type  2   force =     0.00096249   -0.01188493   -0.00952121
     atom   19 type  2   force =     0.01188493    0.00096249   -0.00952121
     atom   20 type  2   force =     0.00096249   -0.01188493    0.00952121
     atom   21 type  2   force =     0.01188493    0.00096249    0.00952121
     atom   22 type  2   force =     0.00096249    0.01188493    0.00952121
     atom   23 type  2   force =    -0.01188493    0.00096249    0.00952121
     atom   24 type  2   force =     0.00096249    0.01188493   -0.00952121
     atom   25 type  2   force =    -0.01188493    0.00096249   -0.00952121
     atom   26 type  2   force =     0.01188493   -0.00096249    0.00952121
     atom   27 type  2   force =    -0.00096249   -0.01188493   -0.00952121
     atom   28 type  2   force =     0.01188493   -0.00096249   -0.00952121
     atom   29 type  2   force =    -0.00096249    0.01188493   -0.00952121
     atom   30 type  2   force =    -0.01188493   -0.00096249   -0.00952121
     atom   31 type  2   force =    -0.00096249    0.01188493    0.00952121
     atom   32 type  2   force =    -0.01188493   -0.00096249    0.00952121
     atom   33 type  2   force =    -0.00817874   -0.00436758    0.00000000
     atom   34 type  2   force =     0.00817874   -0.00436758   -0.00000000
     atom   35 type  2   force =     0.00436758    0.00817874   -0.00000000
     atom   36 type  2   force =     0.00817874    0.00436758   -0.00000000
     atom   37 type  2   force =    -0.00436758    0.00817874    0.00000000
     atom   38 type  2   force =     0.00436758   -0.00817874    0.00000000
     atom   39 type  2   force =    -0.00817874    0.00436758   -0.00000000
     atom   40 type  2   force =    -0.00436758   -0.00817874   -0.00000000
     atom   41 type  2   force =     0.00000000    0.00000000   -0.01814236
     atom   42 type  2   force =     0.00000000    0.00000000    0.01814236
     atom   43 type  2   force =     0.00000000    0.00000000   -0.01814236
     atom   44 type  2   force =     0.00000000    0.00000000    0.01814236

     Total force =     0.075824     Total SCF correction =     0.000022


     Computing stress (Cartesian axis) and pressure

          total   stress  (Ry/bohr**3)                   (kbar)     P=        4.12
   0.00001830   0.00000000   0.00000000            2.69        0.00        0.00
   0.00000000   0.00001830   0.00000000            0.00        2.69        0.00
   0.00000000   0.00000000   0.00004741            0.00        0.00        6.97


     BFGS Geometry Optimization
     Energy error            =      0.0E+00 Ry
     Gradient error          =      1.8E-02 Ry/Bohr
     Cell gradient error     =      7.0E+00 kbar

     number of scf cycles    =   1
     number of bfgs steps    =   0

     enthalpy           new  =   -1400.3260563344 Ry

     new trust radius        =       0.0181423628 bohr
     new conv_thr            =       0.0000000100 Ry

     new unit-cell volume =   3880.56325 a.u.^3 (   575.04015 Ang^3 )
     density =      1.67798 g/cm^3

CELL_PARAMETERS (alat= 12.61135185)
   1.082316858   0.000000000   0.000000000
   0.000000000   1.082316858   0.000000000
   0.000000000   0.000000000   1.651585239

ATOMIC_POSITIONS (crystal)
Al            0.0000000000        0.5000000000       -0.0000000000
Al            0.5000000000        0.0000000000        0.5000000000
Al            0.0000000000        0.5000000000        0.5000000000
Al            0.5000000000        0.0000000000       -0.0000000000
Al            0.0000000000        0.0000000000        0.0000000000
Al            0.5000000000        0.5000000000        0.5000000000
K             0.2116834740        0.2883165260        0.2500000000
K             0.2883165260        0.7883165260        0.2500000000
K             0.2883165260        0.7883165260        0.7500000000
K             0.2116834740        0.2883165260        0.7500000000
K             0.7883165260        0.7116834740        0.2500000000
K             0.7883165260        0.7116834740        0.7500000000
K             0.7116834740        0.2116834740        0.2500000000
K             0.7116834740        0.2116834740        0.7500000000
K             0.0000000000        0.0000000000        0.5000000000
K             0.5000000000        0.5000000000        0.0000000000
H             0.0448715788        0.6686705219        0.3903079542
H             0.4551284212        0.1686705219        0.1096920458
H             0.8313294781        0.4551284212        0.1096920458
H             0.4551284212        0.1686705219        0.8903079542
H             0.8313294781        0.4551284212        0.8903079542
H             0.9551284212        0.3313294781        0.3903079542
H             0.6686705219        0.9551284212        0.3903079542
H             0.9551284212        0.3313294781        0.6096920458
H             0.6686705219        0.9551284212        0.6096920458
H             0.3313294781        0.0448715788        0.3903079542
H             0.0448715788        0.6686705219        0.6096920458
H             0.3313294781        0.0448715788        0.6096920458
H             0.5448715788        0.8313294781        0.1096920458
H             0.1686705219        0.5448715788        0.1096920458
H             0.5448715788        0.8313294781        0.8903079542
H             0.1686705219        0.5448715788        0.8903079542
H             0.0740636662        0.2456075869        0.0000000000
H             0.4259363338        0.7456075869        0.5000000000
H             0.2543924131        0.4259363338        0.5000000000
H             0.9259363338        0.7543924131       -0.0000000000
H             0.2456075869        0.9259363338        0.0000000000
H             0.7543924131        0.0740636662        0.0000000000
H             0.5740636662        0.2543924131        0.5000000000
H             0.7456075869        0.5740636662        0.5000000000
H             0.0000000000        0.0000000000        0.1642799486
H             0.5000000000        0.5000000000        0.3357200514
H             0.5000000000        0.5000000000        0.6642799486
H             0.0000000000        0.0000000000        0.8357200514



     Writing config-only to output data dir ./basic.save/
     NEW-OLD atomic charge density approx. for the potential

     Check: negative core charge=   -0.000003
     extrapolated charge  136.28477, renormalised to  136.00000

     total cpu time spent up to now is      821.4 secs

     Self-consistent Calculation

     iteration #  1     ecut=    60.00 Ry     beta= 0.70
     Davidson diagonalization with overlap
     ethr =  1.00E-06,  avg # of iterations =  4.3

     total cpu time spent up to now is      915.2 secs

     total energy              =   -1400.33041998 Ry
     estimated scf accuracy    <       0.00153775 Ry

     iteration #  2     ecut=    60.00 Ry     beta= 0.70
     Davidson diagonalization with overlap
     c_bands:  1 eigenvalues not converged
     c_bands:  2 eigenvalues not converged
     ethr =  1.13E-06,  avg # of iterations =  4.2

     total cpu time spent up to now is     1006.1 secs

     total energy              =   -1400.33161582 Ry
     estimated scf accuracy    <       0.00134928 Ry

     iteration #  3     ecut=    60.00 Ry     beta= 0.70
     Davidson diagonalization with overlap
     ethr =  9.92E-07,  avg # of iterations =  2.0

     total cpu time spent up to now is     1068.3 secs

     total energy              =   -1400.33168681 Ry
     estimated scf accuracy    <       0.00011401 Ry

     iteration #  4     ecut=    60.00 Ry     beta= 0.70
     Davidson diagonalization with overlap
     ethr =  8.38E-08,  avg # of iterations =  3.4

     total cpu time spent up to now is     1148.8 secs

     total energy              =   -1400.33172073 Ry
     estimated scf accuracy    <       0.00000151 Ry

     iteration #  5     ecut=    60.00 Ry     beta= 0.70
     Davidson diagonalization with overlap
     ethr =  1.11E-09,  avg # of iterations =  5.3

     total cpu time spent up to now is     1240.5 secs

     total energy              =   -1400.33172109 Ry
     estimated scf accuracy    <       0.00000319 Ry

     iteration #  6     ecut=    60.00 Ry     beta= 0.70
     Davidson diagonalization with overlap
     ethr =  1.11E-09,  avg # of iterations =  2.0

     total cpu time spent up to now is     1312.8 secs

     total energy              =   -1400.33172120 Ry
     estimated scf accuracy    <       0.00000031 Ry

     iteration #  7     ecut=    60.00 Ry     beta= 0.70
     Davidson diagonalization with overlap
     ethr =  2.24E-10,  avg # of iterations =  3.3

     total cpu time spent up to now is     1395.2 secs

     total energy              =   -1400.33172131 Ry
     estimated scf accuracy    <       0.00000001 Ry

     iteration #  8     ecut=    60.00 Ry     beta= 0.70
     Davidson diagonalization with overlap
     ethr =  8.67E-12,  avg # of iterations =  4.7

     total cpu time spent up to now is     1474.1 secs

     End of self-consistent calculation

     Number of k-points >= 100: set verbosity='high' to print the bands.

     the Fermi energy is     4.5106 ev

!    total energy              =   -1400.33172131 Ry
     estimated scf accuracy    <          5.6E-09 Ry
     smearing contrib. (-TS)   =       0.00000000 Ry
     internal energy E=F+TS    =   -1400.33172131 Ry

     The total energy is F=E-TS. E is the sum of the following terms:
     one-electron contribution =    -219.08016841 Ry
     hartree contribution      =     152.72554022 Ry
     xc contribution           =    -148.47223093 Ry
     ewald contribution        =    -423.35360135 Ry
     one-center paw contrib.   =    -762.15126084 Ry

     convergence has been achieved in   8 iterations

     Forces acting on atoms (cartesian axes, Ry/au):

     atom    1 type  3   force =     0.00000000    0.00000000   -0.00000000
     atom    2 type  3   force =     0.00000000    0.00000000    0.00000000
     atom    3 type  3   force =     0.00000000    0.00000000   -0.00000000
     atom    4 type  3   force =     0.00000000    0.00000000   -0.00000000
     atom    5 type  3   force =     0.00000000    0.00000000    0.00000000
     atom    6 type  3   force =     0.00000000    0.00000000    0.00000000
     atom    7 type  1   force =    -0.00103282    0.00103282    0.00000000
     atom    8 type  1   force =     0.00103282    0.00103282    0.00000000
     atom    9 type  1   force =     0.00103282    0.00103282    0.00000000
     atom   10 type  1   force =    -0.00103282    0.00103282    0.00000000
     atom   11 type  1   force =     0.00103282   -0.00103282    0.00000000
     atom   12 type  1   force =     0.00103282   -0.00103282    0.00000000
     atom   13 type  1   force =    -0.00103282   -0.00103282    0.00000000
     atom   14 type  1   force =    -0.00103282   -0.00103282    0.00000000
     atom   15 type  1   force =     0.00000000    0.00000000    0.00000000
     atom   16 type  1   force =     0.00000000    0.00000000    0.00000000
     atom   17 type  2   force =    -0.00071058   -0.01012710    0.00786833
     atom   18 type  2   force =     0.00071058   -0.01012710   -0.00786833
     atom   19 type  2   force =     0.01012710    0.00071058   -0.00786833
     atom   20 type  2   force =     0.00071058   -0.01012710    0.00786833
     atom   21 type  2   force =     0.01012710    0.00071058    0.00786833
     atom   22 type  2   force =     0.00071058    0.01012710    0.00786833
     atom   23 type  2   force =    -0.01012710    0.00071058    0.00786833
     atom   24 type  2   force =     0.00071058    0.01012710   -0.00786833
     atom   25 type  2   force =    -0.01012710    0.00071058   -0.00786833
     atom   26 type  2   force =     0.01012710   -0.00071058    0.00786833
     atom   27 type  2   force =    -0.00071058   -0.01012710   -0.00786833
     atom   28 type  2   force =     0.01012710   -0.00071058   -0.00786833
     atom   29 type  2   force =    -0.00071058    0.01012710   -0.00786833
     atom   30 type  2   force =    -0.01012710   -0.00071058   -0.00786833
     atom   31 type  2   force =    -0.00071058    0.01012710    0.00786833
     atom   32 type  2   force =    -0.01012710   -0.00071058    0.00786833
     atom   33 type  2   force =    -0.00776021   -0.00373174    0.00000000
     atom   34 type  2   force =     0.00776021   -0.00373174   -0.00000000
     atom   35 type  2   force =     0.00373174    0.00776021   -0.00000000
     atom   36 type  2   force =     0.00776021    0.00373174   -0.00000000
     atom   37 type  2   force =    -0.00373174    0.00776021    0.00000000
     atom   38 type  2   force =     0.00373174   -0.00776021   -0.00000000
     atom   39 type  2   force =    -0.00776021    0.00373174   -0.00000000
     atom   40 type  2   force =    -0.00373174   -0.00776021    0.00000000
     atom   41 type  2   force =     0.00000000    0.00000000   -0.01623185
     atom   42 type  2   force =     0.00000000    0.00000000    0.01623185
     atom   43 type  2   force =     0.00000000    0.00000000   -0.01623185
     atom   44 type  2   force =     0.00000000    0.00000000    0.01623185

     Total force =     0.065603     Total SCF correction =     0.000048


     Computing stress (Cartesian axis) and pressure

          total   stress  (Ry/bohr**3)                   (kbar)     P=        4.65
   0.00002030   0.00000000   0.00000000            2.99        0.00        0.00
   0.00000000   0.00002030   0.00000000            0.00        2.99        0.00
   0.00000000   0.00000000   0.00005424            0.00        0.00        7.98

     Energy error            =      5.7E-03 Ry
     Gradient error          =      1.6E-02 Ry/Bohr
     Cell gradient error     =      8.0E+00 kbar

     number of scf cycles    =   2
     number of bfgs steps    =   1

     enthalpy           old  =   -1400.3260563344 Ry
     enthalpy           new  =   -1400.3317213073 Ry

     CASE: enthalpy          _new < enthalpy          _old


     WARNING: bfgs curvature condition failed, Theta= 0.911
     new trust radius        =       0.0199802512 bohr
     new conv_thr            =       0.0000000016 Ry

     new unit-cell volume =   3891.47693 a.u.^3 (   576.65739 Ang^3 )
     density =      1.67327 g/cm^3

CELL_PARAMETERS (alat= 12.61135185)
   1.082969709   0.000000000   0.000000000
   0.000000000   1.082969709   0.000000000
   0.000000000   0.000000000   1.654233889

ATOMIC_POSITIONS (crystal)
Al            0.0000000000        0.5000000000       -0.0000000000
Al            0.5000000000        0.0000000000        0.5000000000
Al            0.0000000000        0.5000000000        0.5000000000
Al            0.5000000000        0.0000000000       -0.0000000000
Al            0.0000000000        0.0000000000        0.0000000000
Al            0.5000000000        0.5000000000        0.5000000000
K             0.2115914486        0.2884085514        0.2500000000
K             0.2884085514        0.7884085514        0.2500000000
K             0.2884085514        0.7884085514        0.7500000000
K             0.2115914486        0.2884085514        0.7500000000
K             0.7884085514        0.7115914486        0.2500000000
K             0.7884085514        0.7115914486        0.7500000000
K             0.7115914486        0.2115914486        0.2500000000
K             0.7115914486        0.2115914486        0.7500000000
K             0.0000000000        0.0000000000        0.5000000000
K             0.5000000000        0.5000000000        0.0000000000
H             0.0448058791        0.6677559608        0.3907764726
H             0.4551941209        0.1677559608        0.1092235274
H             0.8322440392        0.4551941209        0.1092235274
H             0.4551941209        0.1677559608        0.8907764726
H             0.8322440392        0.4551941209        0.8907764726
H             0.9551941209        0.3322440392        0.3907764726
H             0.6677559608        0.9551941209        0.3907764726
H             0.9551941209        0.3322440392        0.6092235274
H             0.6677559608        0.9551941209        0.6092235274
H             0.3322440392        0.0448058791        0.3907764726
H             0.0448058791        0.6677559608        0.6092235274
H             0.3322440392        0.0448058791        0.6092235274
H             0.5448058791        0.8322440392        0.1092235274
H             0.1677559608        0.5448058791        0.1092235274
H             0.5448058791        0.8322440392        0.8907764726
H             0.1677559608        0.5448058791        0.8907764726
H             0.0733738940        0.2452707213        0.0000000000
H             0.4266261060        0.7452707213        0.5000000000
H             0.2547292787        0.4266261060        0.5000000000
H             0.9266261060        0.7547292787       -0.0000000000
H             0.2452707213        0.9266261060        0.0000000000
H             0.7547292787        0.0733738940       -0.0000000000
H             0.5733738940        0.2547292787        0.5000000000
H             0.7452707213        0.5733738940        0.5000000000
H             0.0000000000        0.0000000000        0.1633251162
H             0.5000000000        0.5000000000        0.3366748838
H             0.5000000000        0.5000000000        0.6633251162
H             0.0000000000        0.0000000000        0.8366748838



     Writing config-only to output data dir ./basic.save/
     NEW-OLD atomic charge density approx. for the potential

     Check: negative core charge=   -0.000003
     extrapolated charge  136.38085, renormalised to  136.00000

     total cpu time spent up to now is     1510.5 secs

     Self-consistent Calculation

     iteration #  1     ecut=    60.00 Ry     beta= 0.70
     Davidson diagonalization with overlap
     ethr =  1.00E-06,  avg # of iterations =  5.9

     total cpu time spent up to now is     1614.7 secs

     total energy              =   -1400.33492212 Ry
     estimated scf accuracy    <       0.00220969 Ry

     iteration #  2     ecut=    60.00 Ry     beta= 0.70
     Davidson diagonalization with overlap
     c_bands:  1 eigenvalues not converged
     c_bands:  1 eigenvalues not converged
     c_bands:  1 eigenvalues not converged
     c_bands:  1 eigenvalues not converged
     c_bands:  1 eigenvalues not converged
     c_bands:  1 eigenvalues not converged
     c_bands:  1 eigenvalues not converged
     c_bands:  1 eigenvalues not converged
     ethr =  1.62E-06,  avg # of iterations =  9.1

     total cpu time spent up to now is     1726.7 secs

     total energy              =   -1400.33689895 Ry
     estimated scf accuracy    <       0.00225784 Ry

     iteration #  3     ecut=    60.00 Ry     beta= 0.70
     Davidson diagonalization with overlap
     c_bands:  1 eigenvalues not converged
     ethr =  1.62E-06,  avg # of iterations =  2.1

     total cpu time spent up to now is     1789.9 secs

     total energy              =   -1400.33700517 Ry
     estimated scf accuracy    <       0.00022174 Ry

     iteration #  4     ecut=    60.00 Ry     beta= 0.70
     Davidson diagonalization with overlap
     ethr =  1.63E-07,  avg # of iterations =  2.1

     total cpu time spent up to now is     1862.8 secs

     total energy              =   -1400.33703864 Ry
     estimated scf accuracy    <       0.00001037 Ry

     iteration #  5     ecut=    60.00 Ry     beta= 0.70
     Davidson diagonalization with overlap
     ethr =  7.63E-09,  avg # of iterations =  5.5

     total cpu time spent up to now is     1959.8 secs

     total energy              =   -1400.33704501 Ry
     estimated scf accuracy    <       0.00000568 Ry

     iteration #  6     ecut=    60.00 Ry     beta= 0.70
     Davidson diagonalization with overlap
     ethr =  4.18E-09,  avg # of iterations =  2.0

     total cpu time spent up to now is     2020.6 secs

     total energy              =   -1400.33704498 Ry
     estimated scf accuracy    <       0.00000075 Ry

     iteration #  7     ecut=    60.00 Ry     beta= 0.70
     Davidson diagonalization with overlap
     ethr =  5.54E-10,  avg # of iterations =  2.9

     total cpu time spent up to now is     2099.2 secs

     total energy              =   -1400.33704524 Ry
     estimated scf accuracy    <       0.00000003 Ry

     iteration #  8     ecut=    60.00 Ry     beta= 0.70
     Davidson diagonalization with overlap
     ethr =  1.86E-11,  avg # of iterations =  4.9

     total cpu time spent up to now is     2177.5 secs

     total energy              =   -1400.33704525 Ry
     estimated scf accuracy    <          6.5E-09 Ry

     iteration #  9     ecut=    60.00 Ry     beta= 0.70
     Davidson diagonalization with overlap
     ethr =  4.80E-12,  avg # of iterations =  2.3

     total cpu time spent up to now is     2250.1 secs

     End of self-consistent calculation

     Number of k-points >= 100: set verbosity='high' to print the bands.

     the Fermi energy is     4.4827 ev

!    total energy              =   -1400.33704525 Ry
     estimated scf accuracy    <          1.5E-10 Ry
     smearing contrib. (-TS)   =       0.00000000 Ry
     internal energy E=F+TS    =   -1400.33704525 Ry

     The total energy is F=E-TS. E is the sum of the following terms:
     one-electron contribution =    -219.51615147 Ry
     hartree contribution      =     152.80964679 Ry
     xc contribution           =    -148.48153612 Ry
     ewald contribution        =    -422.99412838 Ry
     one-center paw contrib.   =    -762.15487607 Ry

     convergence has been achieved in   9 iterations

     Forces acting on atoms (cartesian axes, Ry/au):

     atom    1 type  3   force =     0.00000000    0.00000000   -0.00000000
     atom    2 type  3   force =     0.00000000    0.00000000   -0.00000000
     atom    3 type  3   force =     0.00000000    0.00000000    0.00000000
     atom    4 type  3   force =     0.00000000    0.00000000    0.00000000
     atom    5 type  3   force =     0.00000000    0.00000000    0.00000000
     atom    6 type  3   force =     0.00000000    0.00000000    0.00000000
     atom    7 type  1   force =    -0.00095019    0.00095019   -0.00000000
     atom    8 type  1   force =     0.00095019    0.00095019    0.00000000
     atom    9 type  1   force =     0.00095019    0.00095019    0.00000000
     atom   10 type  1   force =    -0.00095019    0.00095019   -0.00000000
     atom   11 type  1   force =     0.00095019   -0.00095019    0.00000000
     atom   12 type  1   force =     0.00095019   -0.00095019    0.00000000
     atom   13 type  1   force =    -0.00095019   -0.00095019   -0.00000000
     atom   14 type  1   force =    -0.00095019   -0.00095019   -0.00000000
     atom   15 type  1   force =     0.00000000    0.00000000   -0.00000000
     atom   16 type  1   force =     0.00000000    0.00000000    0.00000000
     atom   17 type  2   force =    -0.00047095   -0.00829428    0.00619917
     atom   18 type  2   force =     0.00047095   -0.00829428   -0.00619917
     atom   19 type  2   force =     0.00829428    0.00047095   -0.00619917
     atom   20 type  2   force =     0.00047095   -0.00829428    0.00619917
     atom   21 type  2   force =     0.00829428    0.00047095    0.00619917
     atom   22 type  2   force =     0.00047095    0.00829428    0.00619917
     atom   23 type  2   force =    -0.00829428    0.00047095    0.00619917
     atom   24 type  2   force =     0.00047095    0.00829428   -0.00619917
     atom   25 type  2   force =    -0.00829428    0.00047095   -0.00619917
     atom   26 type  2   force =     0.00829428   -0.00047095    0.00619917
     atom   27 type  2   force =    -0.00047095   -0.00829428   -0.00619917
     atom   28 type  2   force =     0.00829428   -0.00047095   -0.00619917
     atom   29 type  2   force =    -0.00047095    0.00829428   -0.00619917
     atom   30 type  2   force =    -0.00829428   -0.00047095   -0.00619917
     atom   31 type  2   force =    -0.00047095    0.00829428    0.00619917
     atom   32 type  2   force =    -0.00829428   -0.00047095    0.00619917
     atom   33 type  2   force =    -0.00730958   -0.00304092   -0.00000000
     atom   34 type  2   force =     0.00730958   -0.00304092   -0.00000000
     atom   35 type  2   force =     0.00304092    0.00730958   -0.00000000
     atom   36 type  2   force =     0.00730958    0.00304092   -0.00000000
     atom   37 type  2   force =    -0.00304092    0.00730958    0.00000000
     atom   38 type  2   force =     0.00304092   -0.00730958    0.00000000
     atom   39 type  2   force =    -0.00730958    0.00304092   -0.00000000
     atom   40 type  2   force =    -0.00304092   -0.00730958   -0.00000000
     atom   41 type  2   force =     0.00000000    0.00000000   -0.01420121
     atom   42 type  2   force =     0.00000000    0.00000000    0.01420121
     atom   43 type  2   force =     0.00000000    0.00000000   -0.01420121
     atom   44 type  2   force =     0.00000000    0.00000000    0.01420121

     Total force =     0.055152     Total SCF correction =     0.000015


     Computing stress (Cartesian axis) and pressure

          total   stress  (Ry/bohr**3)                   (kbar)     P=        5.00
   0.00002133   0.00000000   0.00000000            3.14        0.00        0.00
   0.00000000   0.00002133   0.00000000            0.00        3.14        0.00
   0.00000000   0.00000000   0.00005938            0.00        0.00        8.74

     Energy error            =      5.3E-03 Ry
     Gradient error          =      1.4E-02 Ry/Bohr
     Cell gradient error     =      8.7E+00 kbar

     number of scf cycles    =   3
     number of bfgs steps    =   2

     enthalpy           old  =   -1400.3317213074 Ry
     enthalpy           new  =   -1400.3370452471 Ry

     CASE: enthalpy          _new < enthalpy          _old

     new trust radius        =       0.0299644374 bohr
     new conv_thr            =       0.0000000014 Ry

     new unit-cell volume =   3907.64605 a.u.^3 (   579.05340 Ang^3 )
     density =      1.66635 g/cm^3

CELL_PARAMETERS (alat= 12.61135185)
   1.083916410   0.000000000   0.000000000
   0.000000000   1.083916410   0.000000000
   0.000000000   0.000000000   1.658206863

ATOMIC_POSITIONS (crystal)
Al            0.0000000000        0.5000000000       -0.0000000000
Al            0.5000000000        0.0000000000        0.5000000000
Al            0.0000000000        0.5000000000        0.5000000000
Al            0.5000000000        0.0000000000       -0.0000000000
Al            0.0000000000        0.0000000000        0.0000000000
Al            0.5000000000        0.5000000000        0.5000000000
K             0.2114717554        0.2885282446        0.2500000000
K             0.2885282446        0.7885282446        0.2500000000
K             0.2885282446        0.7885282446        0.7500000000
K             0.2114717554        0.2885282446        0.7500000000
K             0.7885282446        0.7114717554        0.2500000000
K             0.7885282446        0.7114717554        0.7500000000
K             0.7114717554        0.2114717554        0.2500000000
K             0.7114717554        0.2114717554        0.7500000000
K             0.0000000000        0.0000000000        0.5000000000
K             0.5000000000        0.5000000000        0.0000000000
H             0.0447384580        0.6666675332        0.3913188586
H             0.4552615420        0.1666675332        0.1086811414
H             0.8333324668        0.4552615420        0.1086811414
H             0.4552615420        0.1666675332        0.8913188586
H             0.8333324668        0.4552615420        0.8913188586
H             0.9552615420        0.3333324668        0.3913188586
H             0.6666675332        0.9552615420        0.3913188586
H             0.9552615420        0.3333324668        0.6086811414
H             0.6666675332        0.9552615420        0.6086811414
H             0.3333324668        0.0447384580        0.3913188586
H             0.0447384580        0.6666675332        0.6086811414
H             0.3333324668        0.0447384580        0.6086811414
H             0.5447384580        0.8333324668        0.1086811414
H             0.1666675332        0.5447384580        0.1086811414
H             0.5447384580        0.8333324668        0.8913188586
H             0.1666675332        0.5447384580        0.8913188586
H             0.0724598468        0.2448714176       -0.0000000000
H             0.4275401532        0.7448714176        0.5000000000
H             0.2551285824        0.4275401532        0.5000000000
H             0.9275401532        0.7551285824       -0.0000000000
H             0.2448714176        0.9275401532        0.0000000000
H             0.7551285824        0.0724598468       -0.0000000000
H             0.5724598468        0.2551285824        0.5000000000
H             0.7448714176        0.5724598468        0.5000000000
H             0.0000000000        0.0000000000        0.1621297778
H             0.5000000000        0.5000000000        0.3378702222
H             0.5000000000        0.5000000000        0.6621297778
H             0.0000000000        0.0000000000        0.8378702222



     Writing config-only to output data dir ./basic.save/
     NEW-OLD atomic charge density approx. for the potential

     Check: negative core charge=   -0.000003
     extrapolated charge  136.56191, renormalised to  136.00000

     total cpu time spent up to now is     2286.8 secs

     Self-consistent Calculation

     iteration #  1     ecut=    60.00 Ry     beta= 0.70
     Davidson diagonalization with overlap
     c_bands:  1 eigenvalues not converged
     c_bands:  1 eigenvalues not converged
     c_bands:  1 eigenvalues not converged
     c_bands:  1 eigenvalues not converged
     c_bands:  1 eigenvalues not converged
     c_bands:  1 eigenvalues not converged
     c_bands:  2 eigenvalues not converged
     c_bands:  1 eigenvalues not converged
     ethr =  1.00E-06,  avg # of iterations =  9.8

     total cpu time spent up to now is     2414.7 secs

     total energy              =   -1400.33835795 Ry
     estimated scf accuracy    <       0.00395032 Ry

     iteration #  2     ecut=    60.00 Ry     beta= 0.70
     Davidson diagonalization with overlap
     c_bands:  1 eigenvalues not converged
     c_bands:  1 eigenvalues not converged
     c_bands:  1 eigenvalues not converged
     c_bands:  1 eigenvalues not converged
     c_bands:  1 eigenvalues not converged
     c_bands:  1 eigenvalues not converged
     c_bands:  1 eigenvalues not converged
     c_bands:  1 eigenvalues not converged
     c_bands:  1 eigenvalues not converged
     c_bands:  1 eigenvalues not converged
     c_bands:  1 eigenvalues not converged
     c_bands:  1 eigenvalues not converged
     c_bands:  2 eigenvalues not converged
     c_bands:  1 eigenvalues not converged
     c_bands:  1 eigenvalues not converged
     ethr =  2.90E-06,  avg # of iterations = 10.4

     total cpu time spent up to now is     2532.1 secs

     total energy              =   -1400.34234442 Ry
     estimated scf accuracy    <       0.00446182 Ry

     iteration #  3     ecut=    60.00 Ry     beta= 0.70
     Davidson diagonalization with overlap
     c_bands:  1 eigenvalues not converged
     ethr =  2.90E-06,  avg # of iterations =  2.2

     total cpu time spent up to now is     2596.1 secs

     total energy              =   -1400.34254223 Ry
     estimated scf accuracy    <       0.00049950 Ry

     iteration #  4     ecut=    60.00 Ry     beta= 0.70
     Davidson diagonalization with overlap
     ethr =  3.67E-07,  avg # of iterations =  2.0

     total cpu time spent up to now is     2663.8 secs

     total energy              =   -1400.34254074 Ry
     estimated scf accuracy    <       0.00007552 Ry

     iteration #  5     ecut=    60.00 Ry     beta= 0.70
     Davidson diagonalization with overlap
     ethr =  5.55E-08,  avg # of iterations =  4.1

     total cpu time spent up to now is     2752.4 secs

     total energy              =   -1400.34257313 Ry
     estimated scf accuracy    <       0.00001085 Ry

     iteration #  6     ecut=    60.00 Ry     beta= 0.70
     Davidson diagonalization with overlap
     ethr =  7.98E-09,  avg # of iterations =  2.0

     total cpu time spent up to now is     2813.7 secs

     total energy              =   -1400.34257287 Ry
     estimated scf accuracy    <       0.00000187 Ry

     iteration #  7     ecut=    60.00 Ry     beta= 0.70
     Davidson diagonalization with overlap
     ethr =  1.38E-09,  avg # of iterations =  2.6

     total cpu time spent up to now is     2890.4 secs

     total energy              =   -1400.34257340 Ry
     estimated scf accuracy    <          9.1E-09 Ry

     iteration #  8     ecut=    60.00 Ry     beta= 0.70
     Davidson diagonalization with overlap
     ethr =  6.69E-12,  avg # of iterations =  5.6

     total cpu time spent up to now is     2985.4 secs

     End of self-consistent calculation

     Number of k-points >= 100: set verbosity='high' to print the bands.

     the Fermi energy is     4.4412 ev

!    total energy              =   -1400.34257342 Ry
     estimated scf accuracy    <          1.4E-09 Ry
     smearing contrib. (-TS)   =       0.00000000 Ry
     internal energy E=F+TS    =   -1400.34257342 Ry

     The total energy is F=E-TS. E is the sum of the following terms:
     one-electron contribution =    -220.22355418 Ry
     hartree contribution      =     152.97280144 Ry
     xc contribution           =    -148.48668287 Ry
     ewald contribution        =    -422.44631961 Ry
     one-center paw contrib.   =    -762.15881821 Ry

     convergence has been achieved in   8 iterations

     Forces acting on atoms (cartesian axes, Ry/au):

     atom    1 type  3   force =     0.00000000    0.00000000   -0.00000000
     atom    2 type  3   force =     0.00000000    0.00000000    0.00000000
     atom    3 type  3   force =     0.00000000    0.00000000    0.00000000
     atom    4 type  3   force =     0.00000000    0.00000000    0.00000000
     atom    5 type  3   force =     0.00000000    0.00000000    0.00000000
     atom    6 type  3   force =     0.00000000    0.00000000    0.00000000
     atom    7 type  1   force =    -0.00087757    0.00087757    0.00000000
     atom    8 type  1   force =     0.00087757    0.00087757    0.00000000
     atom    9 type  1   force =     0.00087757    0.00087757   -0.00000000
     atom   10 type  1   force =    -0.00087757    0.00087757   -0.00000000
     atom   11 type  1   force =     0.00087757   -0.00087757    0.00000000
     atom   12 type  1   force =     0.00087757   -0.00087757   -0.00000000
     atom   13 type  1   force =    -0.00087757   -0.00087757    0.00000000
     atom   14 type  1   force =    -0.00087757   -0.00087757   -0.00000000
     atom   15 type  1   force =     0.00000000    0.00000000   -0.00000000
     atom   16 type  1   force =     0.00000000    0.00000000    0.00000000
     atom   17 type  2   force =    -0.00022164   -0.00613119    0.00430435
     atom   18 type  2   force =     0.00022164   -0.00613119   -0.00430435
     atom   19 type  2   force =     0.00613119    0.00022164   -0.00430435
     atom   20 type  2   force =     0.00022164   -0.00613119    0.00430435
     atom   21 type  2   force =     0.00613119    0.00022164    0.00430435
     atom   22 type  2   force =     0.00022164    0.00613119    0.00430435
     atom   23 type  2   force =    -0.00613119    0.00022164    0.00430435
     atom   24 type  2   force =     0.00022164    0.00613119   -0.00430435
     atom   25 type  2   force =    -0.00613119    0.00022164   -0.00430435
     atom   26 type  2   force =     0.00613119   -0.00022164    0.00430435
     atom   27 type  2   force =    -0.00022164   -0.00613119   -0.00430435
     atom   28 type  2   force =     0.00613119   -0.00022164   -0.00430435
     atom   29 type  2   force =    -0.00022164    0.00613119   -0.00430435
     atom   30 type  2   force =    -0.00613119   -0.00022164   -0.00430435
     atom   31 type  2   force =    -0.00022164    0.00613119    0.00430435
     atom   32 type  2   force =    -0.00613119   -0.00022164    0.00430435
     atom   33 type  2   force =    -0.00675016   -0.00218036    0.00000000
     atom   34 type  2   force =     0.00675016   -0.00218036    0.00000000
     atom   35 type  2   force =     0.00218036    0.00675016    0.00000000
     atom   36 type  2   force =     0.00675016    0.00218036    0.00000000
     atom   37 type  2   force =    -0.00218036    0.00675016    0.00000000
     atom   38 type  2   force =     0.00218036   -0.00675016    0.00000000
     atom   39 type  2   force =    -0.00675016    0.00218036    0.00000000
     atom   40 type  2   force =    -0.00218036   -0.00675016    0.00000000
     atom   41 type  2   force =     0.00000000    0.00000000   -0.01172528
     atom   42 type  2   force =     0.00000000    0.00000000    0.01172528
     atom   43 type  2   force =     0.00000000    0.00000000   -0.01172528
     atom   44 type  2   force =     0.00000000    0.00000000    0.01172528

     Total force =     0.043168     Total SCF correction =     0.000020


     Computing stress (Cartesian axis) and pressure

          total   stress  (Ry/bohr**3)                   (kbar)     P=        5.19
   0.00002144   0.00000000   0.00000000            3.15        0.00        0.00
   0.00000000   0.00002144   0.00000000            0.00        3.15        0.00
   0.00000000   0.00000000   0.00006307            0.00        0.00        9.28

     Energy error            =      5.5E-03 Ry
     Gradient error          =      1.2E-02 Ry/Bohr
     Cell gradient error     =      9.3E+00 kbar

     number of scf cycles    =   4
     number of bfgs steps    =   3

     enthalpy           old  =   -1400.3370452471 Ry
     enthalpy           new  =   -1400.3425734204 Ry

     CASE: enthalpy          _new < enthalpy          _old

     new trust radius        =       0.0449320229 bohr
     new conv_thr            =       0.0000000012 Ry

     new unit-cell volume =   3931.61813 a.u.^3 (   582.60570 Ang^3 )
     density =      1.65619 g/cm^3

CELL_PARAMETERS (alat= 12.61135185)
   1.085287587   0.000000000   0.000000000
   0.000000000   1.085287587   0.000000000
   0.000000000   0.000000000   1.664166326

ATOMIC_POSITIONS (crystal)
Al            0.0000000000        0.5000000000       -0.0000000000
Al            0.5000000000        0.0000000000        0.5000000000
Al            0.0000000000        0.5000000000        0.5000000000
Al            0.5000000000        0.0000000000        0.0000000000
Al            0.0000000000        0.0000000000        0.0000000000
Al            0.5000000000        0.5000000000        0.5000000000
K             0.2113070788        0.2886929212        0.2500000000
K             0.2886929212        0.7886929212        0.2500000000
K             0.2886929212        0.7886929212        0.7500000000
K             0.2113070788        0.2886929212        0.7500000000
K             0.7886929212        0.7113070788        0.2500000000
K             0.7886929212        0.7113070788        0.7500000000
K             0.7113070788        0.2113070788        0.2500000000
K             0.7113070788        0.2113070788        0.7500000000
K             0.0000000000        0.0000000000        0.5000000000
K             0.5000000000        0.5000000000        0.0000000000
H             0.0446685786        0.6653355833        0.3919648051
H             0.4553314214        0.1653355833        0.1080351949
H             0.8346644167        0.4553314214        0.1080351949
H             0.4553314214        0.1653355833        0.8919648051
H             0.8346644167        0.4553314214        0.8919648051
H             0.9553314214        0.3346644167        0.3919648051
H             0.6653355833        0.9553314214        0.3919648051
H             0.9553314214        0.3346644167        0.6080351949
H             0.6653355833        0.9553314214        0.6080351949
H             0.3346644167        0.0446685786        0.3919648051
H             0.0446685786        0.6653355833        0.6080351949
H             0.3346644167        0.0446685786        0.6080351949
H             0.5446685786        0.8346644167        0.1080351949
H             0.1653355833        0.5446685786        0.1080351949
H             0.5446685786        0.8346644167        0.8919648051
H             0.1653355833        0.5446685786        0.8919648051
H             0.0712030519        0.2443902230       -0.0000000000
H             0.4287969481        0.7443902230        0.5000000000
H             0.2556097770        0.4287969481        0.5000000000
H             0.9287969481        0.7556097770       -0.0000000000
H             0.2443902230        0.9287969481        0.0000000000
H             0.7556097770        0.0712030519       -0.0000000000
H             0.5712030519        0.2556097770        0.5000000000
H             0.7443902230        0.5712030519        0.5000000000
H             0.0000000000        0.0000000000        0.1605833909
H             0.5000000000        0.5000000000        0.3394166091
H             0.5000000000        0.5000000000        0.6605833909
H             0.0000000000        0.0000000000        0.8394166091



     Writing config-only to output data dir ./basic.save/
     NEW-OLD atomic charge density approx. for the potential

     Check: negative core charge=   -0.000003
     extrapolated charge  136.82799, renormalised to  136.00000

     total cpu time spent up to now is     3022.8 secs

     Self-consistent Calculation

     iteration #  1     ecut=    60.00 Ry     beta= 0.70
     Davidson diagonalization with overlap
     c_bands:  1 eigenvalues not converged
     c_bands:  1 eigenvalues not converged
     c_bands:  1 eigenvalues not converged
     c_bands:  1 eigenvalues not converged
     ethr =  1.00E-06,  avg # of iterations = 11.5

     total cpu time spent up to now is     3172.3 secs

     total energy              =   -1400.33925018 Ry
     estimated scf accuracy    <       0.00769177 Ry

     iteration #  2     ecut=    60.00 Ry     beta= 0.70
     Davidson diagonalization with overlap
     c_bands:  1 eigenvalues not converged
     c_bands:  1 eigenvalues not converged
     c_bands:  1 eigenvalues not converged
     c_bands:  1 eigenvalues not converged
     c_bands:  1 eigenvalues not converged
     c_bands:  1 eigenvalues not converged
     c_bands:  1 eigenvalues not converged
     c_bands:  2 eigenvalues not converged
     c_bands:  1 eigenvalues not converged
     c_bands:  2 eigenvalues not converged
     c_bands:  1 eigenvalues not converged
     c_bands:  1 eigenvalues not converged
     c_bands:  1 eigenvalues not converged
     c_bands:  1 eigenvalues not converged
     ethr =  5.66E-06,  avg # of iterations = 11.4

     total cpu time spent up to now is     3296.2 secs

     total energy              =   -1400.34769309 Ry
     estimated scf accuracy    <       0.00939272 Ry

     iteration #  3     ecut=    60.00 Ry     beta= 0.70
     Davidson diagonalization with overlap
     ethr =  5.66E-06,  avg # of iterations =  2.2

     total cpu time spent up to now is     3360.6 secs

     total energy              =   -1400.34815496 Ry
     estimated scf accuracy    <       0.00114544 Ry

     iteration #  4     ecut=    60.00 Ry     beta= 0.70
     Davidson diagonalization with overlap
     c_bands:  1 eigenvalues not converged
     c_bands:  1 eigenvalues not converged
     ethr =  8.42E-07,  avg # of iterations =  3.7

     total cpu time spent up to now is     3424.0 secs

     total energy              =   -1400.34797302 Ry
     estimated scf accuracy    <       0.00034341 Ry

     iteration #  5     ecut=    60.00 Ry     beta= 0.70
     Davidson diagonalization with overlap
     c_bands:  1 eigenvalues not converged
     ethr =  2.53E-07,  avg # of iterations =  5.0

     total cpu time spent up to now is     3512.5 secs

     total energy              =   -1400.34809288 Ry
     estimated scf accuracy    <       0.00001420 Ry

     iteration #  6     ecut=    60.00 Ry     beta= 0.70
     Davidson diagonalization with overlap
     ethr =  1.04E-08,  avg # of iterations =  4.5

     total cpu time spent up to now is     3588.6 secs

     total energy              =   -1400.34809330 Ry
     estimated scf accuracy    <       0.00000522 Ry

     iteration #  7     ecut=    60.00 Ry     beta= 0.70
     Davidson diagonalization with overlap
     c_bands:  1 eigenvalues not converged
     ethr =  3.84E-09,  avg # of iterations =  2.2

     total cpu time spent up to now is     3651.9 secs

     total energy              =   -1400.34809338 Ry
     estimated scf accuracy    <       0.00000064 Ry

     iteration #  8     ecut=    60.00 Ry     beta= 0.70
     Davidson diagonalization with overlap
     ethr =  4.70E-10,  avg # of iterations =  3.5

     total cpu time spent up to now is     3733.4 secs

     total energy              =   -1400.34809360 Ry
     estimated scf accuracy    <          8.5E-09 Ry

     iteration #  9     ecut=    60.00 Ry     beta= 0.70
     Davidson diagonalization with overlap
     ethr =  6.28E-12,  avg # of iterations =  5.6

     total cpu time spent up to now is     3834.2 secs

     End of self-consistent calculation

     Number of k-points >= 100: set verbosity='high' to print the bands.

     the Fermi energy is     4.3469 ev

!    total energy              =   -1400.34809361 Ry
     estimated scf accuracy    <          4.6E-10 Ry
     smearing contrib. (-TS)   =       0.00000000 Ry
     internal energy E=F+TS    =   -1400.34809361 Ry

     The total energy is F=E-TS. E is the sum of the following terms:
     one-electron contribution =    -221.33277599 Ry
     hartree contribution      =     153.25357918 Ry
     xc contribution           =    -148.48555835 Ry
     ewald contribution        =    -421.62015801 Ry
     one-center paw contrib.   =    -762.16318044 Ry

     convergence has been achieved in   9 iterations

     Forces acting on atoms (cartesian axes, Ry/au):

     atom    1 type  3   force =     0.00000000    0.00000000   -0.00000000
     atom    2 type  3   force =     0.00000000    0.00000000   -0.00000000
     atom    3 type  3   force =     0.00000000    0.00000000    0.00000000
     atom    4 type  3   force =     0.00000000    0.00000000    0.00000000
     atom    5 type  3   force =     0.00000000    0.00000000   -0.00000000
     atom    6 type  3   force =     0.00000000    0.00000000    0.00000000
     atom    7 type  1   force =    -0.00080245    0.00080245   -0.00000000
     atom    8 type  1   force =     0.00080245    0.00080245   -0.00000000
     atom    9 type  1   force =     0.00080245    0.00080245    0.00000000
     atom   10 type  1   force =    -0.00080245    0.00080245   -0.00000000
     atom   11 type  1   force =     0.00080245   -0.00080245   -0.00000000
     atom   12 type  1   force =     0.00080245   -0.00080245   -0.00000000
     atom   13 type  1   force =    -0.00080245   -0.00080245   -0.00000000
     atom   14 type  1   force =    -0.00080245   -0.00080245    0.00000000
     atom   15 type  1   force =     0.00000000    0.00000000    0.00000000
     atom   16 type  1   force =     0.00000000    0.00000000    0.00000000
     atom   17 type  2   force =     0.00003680   -0.00351839    0.00211321
     atom   18 type  2   force =    -0.00003680   -0.00351839   -0.00211321
     atom   19 type  2   force =     0.00351839   -0.00003680   -0.00211321
     atom   20 type  2   force =    -0.00003680   -0.00351839    0.00211321
     atom   21 type  2   force =     0.00351839   -0.00003680    0.00211321
     atom   22 type  2   force =    -0.00003680    0.00351839    0.00211321
     atom   23 type  2   force =    -0.00351839   -0.00003680    0.00211321
     atom   24 type  2   force =    -0.00003680    0.00351839   -0.00211321
     atom   25 type  2   force =    -0.00351839   -0.00003680   -0.00211321
     atom   26 type  2   force =     0.00351839    0.00003680    0.00211321
     atom   27 type  2   force =     0.00003680   -0.00351839   -0.00211321
     atom   28 type  2   force =     0.00351839    0.00003680   -0.00211321
     atom   29 type  2   force =     0.00003680    0.00351839   -0.00211321
     atom   30 type  2   force =    -0.00351839    0.00003680   -0.00211321
     atom   31 type  2   force =     0.00003680    0.00351839    0.00211321
     atom   32 type  2   force =    -0.00351839    0.00003680    0.00211321
     atom   33 type  2   force =    -0.00603165   -0.00108817   -0.00000000
     atom   34 type  2   force =     0.00603165   -0.00108817    0.00000000
     atom   35 type  2   force =     0.00108817    0.00603165    0.00000000
     atom   36 type  2   force =     0.00603165    0.00108817   -0.00000000
     atom   37 type  2   force =    -0.00108817    0.00603165    0.00000000
     atom   38 type  2   force =     0.00108817   -0.00603165    0.00000000
     atom   39 type  2   force =    -0.00603165    0.00108817    0.00000000
     atom   40 type  2   force =    -0.00108817   -0.00603165    0.00000000
     atom   41 type  2   force =     0.00000000    0.00000000   -0.00860639
     atom   42 type  2   force =     0.00000000    0.00000000    0.00860639
     atom   43 type  2   force =     0.00000000    0.00000000   -0.00860639
     atom   44 type  2   force =     0.00000000    0.00000000    0.00860639

     Total force =     0.029608     Total SCF correction =     0.000018


     Computing stress (Cartesian axis) and pressure

          total   stress  (Ry/bohr**3)                   (kbar)     P=        5.14
   0.00002019   0.00000000   0.00000000            2.97        0.00        0.00
   0.00000000   0.00002019   0.00000000            0.00        2.97        0.00
   0.00000000   0.00000000   0.00006446            0.00        0.00        9.48

     Energy error            =      5.5E-03 Ry
     Gradient error          =      8.6E-03 Ry/Bohr
     Cell gradient error     =      9.5E+00 kbar

     number of scf cycles    =   5
     number of bfgs steps    =   4

     enthalpy           old  =   -1400.3425734204 Ry
     enthalpy           new  =   -1400.3480936059 Ry

     CASE: enthalpy          _new < enthalpy          _old

     new trust radius        =       0.0673623554 bohr
     new conv_thr            =       0.0000000009 Ry

     new unit-cell volume =   3967.13069 a.u.^3 (   587.86812 Ang^3 )
     density =      1.64136 g/cm^3

CELL_PARAMETERS (alat= 12.61135185)
   1.087261786   0.000000000   0.000000000
   0.000000000   1.087261786   0.000000000
   0.000000000   0.000000000   1.673105519

ATOMIC_POSITIONS (crystal)
Al            0.0000000000        0.5000000000       -0.0000000000
Al            0.5000000000        0.0000000000        0.5000000000
Al            0.0000000000        0.5000000000        0.5000000000
Al            0.5000000000        0.0000000000        0.0000000000
Al            0.0000000000        0.0000000000        0.0000000000
Al            0.5000000000        0.5000000000        0.5000000000
K             0.2110734669        0.2889265331        0.2500000000
K             0.2889265331        0.7889265331        0.2500000000
K             0.2889265331        0.7889265331        0.7500000000
K             0.2110734669        0.2889265331        0.7500000000
K             0.7889265331        0.7110734669        0.2500000000
K             0.7889265331        0.7110734669        0.7500000000
K             0.7110734669        0.2110734669        0.2500000000
K             0.7110734669        0.2110734669        0.7500000000
K             0.0000000000        0.0000000000        0.5000000000
K             0.5000000000        0.5000000000        0.0000000000
H             0.0445997645        0.6637116059        0.3927292514
H             0.4554002355        0.1637116059        0.1072707486
H             0.8362883941        0.4554002355        0.1072707486
H             0.4554002355        0.1637116059        0.8927292514
H             0.8362883941        0.4554002355        0.8927292514
H             0.9554002355        0.3362883941        0.3927292514
H             0.6637116059        0.9554002355        0.3927292514
H             0.9554002355        0.3362883941        0.6072707486
H             0.6637116059        0.9554002355        0.6072707486
H             0.3362883941        0.0445997645        0.3927292514
H             0.0445997645        0.6637116059        0.6072707486
H             0.3362883941        0.0445997645        0.6072707486
H             0.5445997645        0.8362883941        0.1072707486
H             0.1637116059        0.5445997645        0.1072707486
H             0.5445997645        0.8362883941        0.8927292514
H             0.1637116059        0.5445997645        0.8927292514
H             0.0694385183        0.2438228734       -0.0000000000
H             0.4305614817        0.7438228734        0.5000000000
H             0.2561771266        0.4305614817        0.5000000000
H             0.9305614817        0.7561771266       -0.0000000000
H             0.2438228734        0.9305614817        0.0000000000
H             0.7561771266        0.0694385183       -0.0000000000
H             0.5694385183        0.2561771266        0.5000000000
H             0.7438228734        0.5694385183        0.5000000000
H             0.0000000000        0.0000000000        0.1585653398
H             0.5000000000        0.5000000000        0.3414346602
H             0.5000000000        0.5000000000        0.6585653398
H             0.0000000000        0.0000000000        0.8414346602



     Writing config-only to output data dir ./basic.save/
     NEW-OLD atomic charge density approx. for the potential

     Check: negative core charge=   -0.000003
     extrapolated charge  137.21562, renormalised to  136.00000

     total cpu time spent up to now is     3871.0 secs

     Self-consistent Calculation

     iteration #  1     ecut=    60.00 Ry     beta= 0.70
     Davidson diagonalization with overlap
     c_bands:  2 eigenvalues not converged
     c_bands:  1 eigenvalues not converged
     c_bands:  1 eigenvalues not converged
     c_bands:  2 eigenvalues not converged
     c_bands:  1 eigenvalues not converged
     c_bands:  1 eigenvalues not converged
     c_bands:  1 eigenvalues not converged
     c_bands:  1 eigenvalues not converged
     c_bands:  2 eigenvalues not converged
     c_bands:  2 eigenvalues not converged
     c_bands:  2 eigenvalues not converged
     c_bands:  2 eigenvalues not converged
     c_bands:  1 eigenvalues not converged
     c_bands:  1 eigenvalues not converged
     c_bands:  2 eigenvalues not converged
     c_bands:  1 eigenvalues not converged
     c_bands:  1 eigenvalues not converged
     c_bands:  1 eigenvalues not converged
     c_bands:  1 eigenvalues not converged
     c_bands:  1 eigenvalues not converged
     c_bands:  2 eigenvalues not converged
     c_bands:  1 eigenvalues not converged
     c_bands:  1 eigenvalues not converged
     c_bands:  1 eigenvalues not converged
     c_bands:  1 eigenvalues not converged
     c_bands:  1 eigenvalues not converged
     c_bands:  1 eigenvalues not converged
     c_bands:  1 eigenvalues not converged
     c_bands:  1 eigenvalues not converged
     c_bands:  1 eigenvalues not converged
     c_bands:  1 eigenvalues not converged
     c_bands:  1 eigenvalues not converged
     c_bands:  1 eigenvalues not converged
     c_bands:  1 eigenvalues not converged
     c_bands:  1 eigenvalues not converged
     c_bands:  1 eigenvalues not converged
     c_bands:  2 eigenvalues not converged
     c_bands:  1 eigenvalues not converged
     c_bands:  1 eigenvalues not converged
     c_bands:  1 eigenvalues not converged
     c_bands:  1 eigenvalues not converged
     c_bands:  2 eigenvalues not converged
     c_bands:  1 eigenvalues not converged
     c_bands:  1 eigenvalues not converged
     c_bands:  1 eigenvalues not converged
     c_bands:  1 eigenvalues not converged
     c_bands:  1 eigenvalues not converged
     c_bands:  1 eigenvalues not converged
     c_bands:  1 eigenvalues not converged
     c_bands:  1 eigenvalues not converged
     ethr =  1.00E-06,  avg # of iterations = 13.9

     total cpu time spent up to now is     4038.4 secs

     total energy              =   -1400.33459358 Ry
     estimated scf accuracy    <       0.01489504 Ry

     iteration #  2     ecut=    60.00 Ry     beta= 0.70
     Davidson diagonalization with overlap
     c_bands:  1 eigenvalues not converged
     c_bands:  1 eigenvalues not converged
     c_bands:  1 eigenvalues not converged
     c_bands:  1 eigenvalues not converged
     c_bands:  1 eigenvalues not converged
     c_bands:  1 eigenvalues not converged
     c_bands:  1 eigenvalues not converged
     c_bands:  1 eigenvalues not converged
     c_bands:  2 eigenvalues not converged
     c_bands:  1 eigenvalues not converged
     c_bands:  1 eigenvalues not converged
     c_bands:  1 eigenvalues not converged
     ethr =  1.10E-05,  avg # of iterations = 11.4

     total cpu time spent up to now is     4165.0 secs

     total energy              =   -1400.35220864 Ry
     estimated scf accuracy    <       0.01934333 Ry

     iteration #  3     ecut=    60.00 Ry     beta= 0.70
     Davidson diagonalization with overlap
     ethr =  1.10E-05,  avg # of iterations =  2.3

     total cpu time spent up to now is     4230.2 secs

     total energy              =   -1400.35325529 Ry
     estimated scf accuracy    <       0.00253359 Ry

     iteration #  4     ecut=    60.00 Ry     beta= 0.70
     Davidson diagonalization with overlap
     c_bands:  1 eigenvalues not converged
     c_bands:  1 eigenvalues not converged
     c_bands:  1 eigenvalues not converged
     ethr =  1.86E-06,  avg # of iterations =  8.7

     total cpu time spent up to now is     4313.5 secs

     total energy              =   -1400.35256944 Ry
     estimated scf accuracy    <       0.00111685 Ry

     iteration #  5     ecut=    60.00 Ry     beta= 0.70
     Davidson diagonalization with overlap
     ethr =  8.21E-07,  avg # of iterations =  3.7

     total cpu time spent up to now is     4398.7 secs

     total energy              =   -1400.35288132 Ry
     estimated scf accuracy    <       0.00000709 Ry

     iteration #  6     ecut=    60.00 Ry     beta= 0.70
     Davidson diagonalization with overlap
     ethr =  5.21E-09,  avg # of iterations =  5.0

     total cpu time spent up to now is     4491.7 secs

     total energy              =   -1400.35288369 Ry
     estimated scf accuracy    <       0.00001270 Ry

     iteration #  7     ecut=    60.00 Ry     beta= 0.70
     Davidson diagonalization with overlap
     ethr =  5.21E-09,  avg # of iterations =  2.0

     total cpu time spent up to now is     4551.8 secs

     total energy              =   -1400.35288043 Ry
     estimated scf accuracy    <       0.00000498 Ry

     iteration #  8     ecut=    60.00 Ry     beta= 0.70
     Davidson diagonalization with overlap
     ethr =  3.66E-09,  avg # of iterations =  2.0

     total cpu time spent up to now is     4625.6 secs

     total energy              =   -1400.35288187 Ry
     estimated scf accuracy    <       0.00000005 Ry

     iteration #  9     ecut=    60.00 Ry     beta= 0.70
     Davidson diagonalization with overlap
     ethr =  3.54E-11,  avg # of iterations =  5.0

     total cpu time spent up to now is     4719.8 secs

     total energy              =   -1400.35288190 Ry
     estimated scf accuracy    <          2.2E-09 Ry

     iteration # 10     ecut=    60.00 Ry     beta= 0.70
     Davidson diagonalization with overlap
     ethr =  1.63E-12,  avg # of iterations =  3.9

     total cpu time spent up to now is     4806.9 secs

     total energy              =   -1400.35288190 Ry
     estimated scf accuracy    <          1.0E-09 Ry

     iteration # 11     ecut=    60.00 Ry     beta= 0.70
     Davidson diagonalization with overlap
     ethr =  7.44E-13,  avg # of iterations =  2.0

     total cpu time spent up to now is     4879.6 secs

     End of self-consistent calculation

     Number of k-points >= 100: set verbosity='high' to print the bands.

     the Fermi energy is     4.2823 ev

!    total energy              =   -1400.35288190 Ry
     estimated scf accuracy    <          4.3E-12 Ry
     smearing contrib. (-TS)   =       0.00000000 Ry
     internal energy E=F+TS    =   -1400.35288190 Ry

     The total energy is F=E-TS. E is the sum of the following terms:
     one-electron contribution =    -223.04468464 Ry
     hartree contribution      =     153.71734165 Ry
     xc contribution           =    -148.47368336 Ry
     ewald contribution        =    -420.38400618 Ry
     one-center paw contrib.   =    -762.16784937 Ry

     convergence has been achieved in  11 iterations

     Forces acting on atoms (cartesian axes, Ry/au):

     atom    1 type  3   force =     0.00000000    0.00000000   -0.00000000
     atom    2 type  3   force =     0.00000000    0.00000000   -0.00000000
     atom    3 type  3   force =     0.00000000    0.00000000    0.00000000
     atom    4 type  3   force =     0.00000000    0.00000000    0.00000000
     atom    5 type  3   force =     0.00000000    0.00000000    0.00000000
     atom    6 type  3   force =     0.00000000    0.00000000    0.00000000
     atom    7 type  1   force =    -0.00074864    0.00074864    0.00000000
     atom    8 type  1   force =     0.00074864    0.00074864    0.00000000
     atom    9 type  1   force =     0.00074864    0.00074864    0.00000000
     atom   10 type  1   force =    -0.00074864    0.00074864   -0.00000000
     atom   11 type  1   force =     0.00074864   -0.00074864    0.00000000
     atom   12 type  1   force =     0.00074864   -0.00074864   -0.00000000
     atom   13 type  1   force =    -0.00074864   -0.00074864    0.00000000
     atom   14 type  1   force =    -0.00074864   -0.00074864    0.00000000
     atom   15 type  1   force =     0.00000000    0.00000000    0.00000000
     atom   16 type  1   force =     0.00000000    0.00000000    0.00000000
     atom   17 type  2   force =     0.00027904   -0.00039814   -0.00035813
     atom   18 type  2   force =    -0.00027904   -0.00039814    0.00035813
     atom   19 type  2   force =     0.00039814   -0.00027904    0.00035813
     atom   20 type  2   force =    -0.00027904   -0.00039814   -0.00035813
     atom   21 type  2   force =     0.00039814   -0.00027904   -0.00035813
     atom   22 type  2   force =    -0.00027904    0.00039814   -0.00035813
     atom   23 type  2   force =    -0.00039814   -0.00027904   -0.00035813
     atom   24 type  2   force =    -0.00027904    0.00039814    0.00035813
     atom   25 type  2   force =    -0.00039814   -0.00027904    0.00035813
     atom   26 type  2   force =     0.00039814    0.00027904   -0.00035813
     atom   27 type  2   force =     0.00027904   -0.00039814    0.00035813
     atom   28 type  2   force =     0.00039814    0.00027904    0.00035813
     atom   29 type  2   force =     0.00027904    0.00039814    0.00035813
     atom   30 type  2   force =    -0.00039814    0.00027904    0.00035813
     atom   31 type  2   force =     0.00027904    0.00039814   -0.00035813
     atom   32 type  2   force =    -0.00039814    0.00027904   -0.00035813
     atom   33 type  2   force =    -0.00509679    0.00029482    0.00000000
     atom   34 type  2   force =     0.00509679    0.00029482    0.00000000
     atom   35 type  2   force =    -0.00029482    0.00509679    0.00000000
     atom   36 type  2   force =     0.00509679   -0.00029482    0.00000000
     atom   37 type  2   force =     0.00029482    0.00509679   -0.00000000
     atom   38 type  2   force =    -0.00029482   -0.00509679   -0.00000000
     atom   39 type  2   force =    -0.00509679   -0.00029482    0.00000000
     atom   40 type  2   force =     0.00029482   -0.00509679    0.00000000
     atom   41 type  2   force =     0.00000000    0.00000000   -0.00463888
     atom   42 type  2   force =     0.00000000    0.00000000    0.00463888
     atom   43 type  2   force =     0.00000000    0.00000000   -0.00463888
     atom   44 type  2   force =     0.00000000    0.00000000    0.00463888

     Total force =     0.017590     Total SCF correction =     0.000001


     Computing stress (Cartesian axis) and pressure

          total   stress  (Ry/bohr**3)                   (kbar)     P=        4.68
   0.00001686   0.00000000   0.00000000            2.48        0.00        0.00
   0.00000000   0.00001686   0.00000000            0.00        2.48        0.00
   0.00000000   0.00000000   0.00006180            0.00        0.00        9.09

     Energy error            =      4.8E-03 Ry
     Gradient error          =      5.1E-03 Ry/Bohr
[...]

     Dense  grid:   255787 G-vectors     FFT dimensions: (  72,  72, 108)

     Estimated max dynamical RAM per process >     277.47 MB

     Estimated total dynamical RAM >      13.01 GB

     Check: negative core charge=   -0.000003

     Initial potential from superposition of free atoms

     starting charge     135.7977, renormalised to     136.0000
     Starting wfcs are  132 randomized atomic wfcs
     Checking if some PAW data can be deallocated... 

     total cpu time spent up to now is    15070.0 secs

     Self-consistent Calculation

     iteration #  1     ecut=    60.00 Ry     beta= 0.70
     Davidson diagonalization with overlap
     c_bands:  5 eigenvalues not converged
     c_bands:  5 eigenvalues not converged
     c_bands:  5 eigenvalues not converged
     c_bands:  2 eigenvalues not converged
     c_bands:  3 eigenvalues not converged
     c_bands:  1 eigenvalues not converged
     c_bands:  1 eigenvalues not converged
     c_bands:  1 eigenvalues not converged
     c_bands:  3 eigenvalues not converged
     c_bands:  5 eigenvalues not converged
     c_bands:  5 eigenvalues not converged
     c_bands:  2 eigenvalues not converged
     c_bands:  3 eigenvalues not converged
     c_bands:  5 eigenvalues not converged
     c_bands:  3 eigenvalues not converged
     c_bands:  5 eigenvalues not converged
     c_bands:  3 eigenvalues not converged
     c_bands:  5 eigenvalues not converged
     c_bands:  5 eigenvalues not converged
     c_bands:  1 eigenvalues not converged
     c_bands:  5 eigenvalues not converged
     c_bands:  5 eigenvalues not converged
     c_bands:  1 eigenvalues not converged
     c_bands:  1 eigenvalues not converged
     c_bands:  1 eigenvalues not converged
     c_bands:  1 eigenvalues not converged
     c_bands:  1 eigenvalues not converged
     c_bands:  1 eigenvalues not converged
     c_bands:  1 eigenvalues not converged
     c_bands:  1 eigenvalues not converged
     c_bands:  1 eigenvalues not converged
     c_bands:  1 eigenvalues not converged
     c_bands:  1 eigenvalues not converged
     c_bands:  1 eigenvalues not converged
     c_bands:  1 eigenvalues not converged
     c_bands:  1 eigenvalues not converged
     c_bands:  5 eigenvalues not converged
     c_bands:  1 eigenvalues not converged
     c_bands:  2 eigenvalues not converged
     c_bands:  5 eigenvalues not converged
     c_bands:  1 eigenvalues not converged
     c_bands:  1 eigenvalues not converged
     c_bands:  2 eigenvalues not converged
     c_bands:  4 eigenvalues not converged
     c_bands:  4 eigenvalues not converged
     c_bands:  3 eigenvalues not converged
     c_bands:  1 eigenvalues not converged
     c_bands:  1 eigenvalues not converged
     c_bands:  5 eigenvalues not converged
     c_bands:  4 eigenvalues not converged
     c_bands:  2 eigenvalues not converged
     c_bands:  1 eigenvalues not converged
     c_bands:  4 eigenvalues not converged
     c_bands:  4 eigenvalues not converged
     c_bands:  1 eigenvalues not converged
     c_bands:  1 eigenvalues not converged
     c_bands:  1 eigenvalues not converged
     c_bands:  1 eigenvalues not converged
     c_bands:  2 eigenvalues not converged
     c_bands:  5 eigenvalues not converged
     c_bands:  2 eigenvalues not converged
     c_bands:  3 eigenvalues not converged
     c_bands:  5 eigenvalues not converged
     c_bands:  5 eigenvalues not converged
     c_bands:  4 eigenvalues not converged
     c_bands:  4 eigenvalues not converged
     c_bands:  4 eigenvalues not converged
     c_bands:  4 eigenvalues not converged
     c_bands:  4 eigenvalues not converged
     c_bands:  4 eigenvalues not converged
     c_bands:  5 eigenvalues not converged
     c_bands:  1 eigenvalues not converged
     c_bands:  1 eigenvalues not converged
     c_bands:  5 eigenvalues not converged
     c_bands:  1 eigenvalues not converged
     c_bands:  1 eigenvalues not converged
     c_bands:  1 eigenvalues not converged
     c_bands:  1 eigenvalues not converged
     c_bands:  3 eigenvalues not converged
     c_bands:  4 eigenvalues not converged
     c_bands:  5 eigenvalues not converged
     c_bands:  5 eigenvalues not converged
     c_bands:  5 eigenvalues not converged
     c_bands:  1 eigenvalues not converged
     c_bands:  4 eigenvalues not converged
     c_bands:  5 eigenvalues not converged
     c_bands:  5 eigenvalues not converged
     c_bands:  5 eigenvalues not converged
     c_bands:  1 eigenvalues not converged
     c_bands:  1 eigenvalues not converged
     c_bands:  1 eigenvalues not converged
     c_bands:  1 eigenvalues not converged
     c_bands:  1 eigenvalues not converged
     c_bands:  2 eigenvalues not converged
     c_bands:  5 eigenvalues not converged
     c_bands:  5 eigenvalues not converged
     c_bands:  1 eigenvalues not converged
     c_bands:  1 eigenvalues not converged
     c_bands:  1 eigenvalues not converged
     c_bands:  1 eigenvalues not converged
     c_bands:  1 eigenvalues not converged
     c_bands:  1 eigenvalues not converged
     c_bands:  1 eigenvalues not converged
     c_bands:  1 eigenvalues not converged
     c_bands:  1 eigenvalues not converged
     c_bands:  1 eigenvalues not converged
     c_bands:  1 eigenvalues not converged
     c_bands:  1 eigenvalues not converged
     c_bands:  1 eigenvalues not converged
     c_bands:  1 eigenvalues not converged
     c_bands:  4 eigenvalues not converged
     c_bands:  5 eigenvalues not converged
     c_bands:  5 eigenvalues not converged
     c_bands:  5 eigenvalues not converged
     c_bands:  5 eigenvalues not converged
     c_bands:  5 eigenvalues not converged
     c_bands:  1 eigenvalues not converged
     c_bands:  1 eigenvalues not converged
     c_bands:  2 eigenvalues not converged
     c_bands:  1 eigenvalues not converged
     c_bands:  5 eigenvalues not converged
     c_bands:  5 eigenvalues not converged
     ethr =  1.00E-06,  avg # of iterations = 32.4

     total cpu time spent up to now is    15447.1 secs

     total energy              =   -1400.01133505 Ry
     estimated scf accuracy    <       2.40740658 Ry

     iteration #  2     ecut=    60.00 Ry     beta= 0.70
     Davidson diagonalization with overlap
     ethr =  1.77E-03,  avg # of iterations =  2.0

     total cpu time spent up to now is    15515.8 secs

     total energy              =   -1400.32988598 Ry
     estimated scf accuracy    <       0.09063344 Ry

     iteration #  3     ecut=    60.00 Ry     beta= 0.70
     Davidson diagonalization with overlap
     c_bands:  1 eigenvalues not converged
     c_bands:  1 eigenvalues not converged
     ethr =  6.66E-05,  avg # of iterations =  7.5

     total cpu time spent up to now is    15614.2 secs

     total energy              =   -1400.35758865 Ry
     estimated scf accuracy    <       0.01009961 Ry

     iteration #  4     ecut=    60.00 Ry     beta= 0.70
     Davidson diagonalization with overlap
     c_bands:  1 eigenvalues not converged
     c_bands:  1 eigenvalues not converged
     c_bands:  1 eigenvalues not converged
     c_bands:  1 eigenvalues not converged
     c_bands:  1 eigenvalues not converged
     c_bands:  2 eigenvalues not converged
     c_bands:  1 eigenvalues not converged
     c_bands:  1 eigenvalues not converged
     c_bands:  1 eigenvalues not converged
     c_bands:  2 eigenvalues not converged
     c_bands:  2 eigenvalues not converged
     c_bands:  2 eigenvalues not converged
     c_bands:  2 eigenvalues not converged
     c_bands:  2 eigenvalues not converged
     c_bands:  2 eigenvalues not converged
     c_bands:  1 eigenvalues not converged
     c_bands:  2 eigenvalues not converged
     c_bands:  2 eigenvalues not converged
     c_bands:  1 eigenvalues not converged
     c_bands:  2 eigenvalues not converged
     c_bands:  2 eigenvalues not converged
     c_bands:  2 eigenvalues not converged
     c_bands:  2 eigenvalues not converged
     c_bands:  2 eigenvalues not converged
     c_bands:  2 eigenvalues not converged
     c_bands:  1 eigenvalues not converged
     c_bands:  1 eigenvalues not converged
     c_bands:  1 eigenvalues not converged
     c_bands:  1 eigenvalues not converged
     c_bands:  1 eigenvalues not converged
     c_bands:  1 eigenvalues not converged
     c_bands:  1 eigenvalues not converged
     c_bands:  1 eigenvalues not converged
     c_bands:  2 eigenvalues not converged
     c_bands:  1 eigenvalues not converged
     c_bands:  2 eigenvalues not converged
     c_bands:  1 eigenvalues not converged
     c_bands:  1 eigenvalues not converged
     c_bands:  1 eigenvalues not converged
     c_bands:  2 eigenvalues not converged
     c_bands:  2 eigenvalues not converged
     c_bands:  1 eigenvalues not converged
     c_bands:  1 eigenvalues not converged
     c_bands:  1 eigenvalues not converged
     c_bands:  1 eigenvalues not converged
     c_bands:  1 eigenvalues not converged
     c_bands:  1 eigenvalues not converged
     c_bands:  1 eigenvalues not converged
     c_bands:  2 eigenvalues not converged
     c_bands:  1 eigenvalues not converged
     c_bands:  1 eigenvalues not converged
     c_bands:  1 eigenvalues not converged
     c_bands:  1 eigenvalues not converged
     c_bands:  1 eigenvalues not converged
     c_bands:  1 eigenvalues not converged
     c_bands:  1 eigenvalues not converged
     c_bands:  2 eigenvalues not converged
     c_bands:  1 eigenvalues not converged
     c_bands:  1 eigenvalues not converged
     c_bands:  1 eigenvalues not converged
     c_bands:  1 eigenvalues not converged
     c_bands:  1 eigenvalues not converged
     c_bands:  1 eigenvalues not converged
     c_bands:  1 eigenvalues not converged
     ethr =  7.43E-06,  avg # of iterations = 11.6

     total cpu time spent up to now is    15729.9 secs

     total energy              =   -1400.36055052 Ry
     estimated scf accuracy    <       0.00046486 Ry

     iteration #  5     ecut=    60.00 Ry     beta= 0.70
     Davidson diagonalization with overlap
     c_bands:  2 eigenvalues not converged
     c_bands:  1 eigenvalues not converged
     c_bands:  1 eigenvalues not converged
     c_bands:  1 eigenvalues not converged
     c_bands:  1 eigenvalues not converged
     c_bands:  1 eigenvalues not converged
     c_bands:  1 eigenvalues not converged
     c_bands:  1 eigenvalues not converged
     c_bands:  2 eigenvalues not converged
     c_bands:  1 eigenvalues not converged
     c_bands:  1 eigenvalues not converged
     c_bands:  2 eigenvalues not converged
     c_bands:  2 eigenvalues not converged
     c_bands:  2 eigenvalues not converged
     c_bands:  1 eigenvalues not converged
     c_bands:  1 eigenvalues not converged
     c_bands:  1 eigenvalues not converged
     c_bands:  1 eigenvalues not converged
     c_bands:  1 eigenvalues not converged
     c_bands:  1 eigenvalues not converged
     c_bands:  1 eigenvalues not converged
     c_bands:  1 eigenvalues not converged
     c_bands:  1 eigenvalues not converged
     c_bands:  1 eigenvalues not converged
     ethr =  3.42E-07,  avg # of iterations =  8.3

     total cpu time spent up to now is    15820.2 secs

     total energy              =   -1400.36071410 Ry
     estimated scf accuracy    <       0.00003626 Ry

     iteration #  6     ecut=    60.00 Ry     beta= 0.70
     Davidson diagonalization with overlap
     c_bands:  1 eigenvalues not converged
     c_bands:  1 eigenvalues not converged
     ethr =  2.67E-08,  avg # of iterations =  4.2

     total cpu time spent up to now is    15898.2 secs

     total energy              =   -1400.36073031 Ry
     estimated scf accuracy    <       0.00000696 Ry

     iteration #  7     ecut=    60.00 Ry     beta= 0.70
     Davidson diagonalization with overlap
     c_bands:  1 eigenvalues not converged
     c_bands:  1 eigenvalues not converged
     c_bands:  1 eigenvalues not converged
     ethr =  5.12E-09,  avg # of iterations =  3.5

     total cpu time spent up to now is    15969.8 secs

     total energy              =   -1400.36073202 Ry
     estimated scf accuracy    <       0.00000032 Ry

     iteration #  8     ecut=    60.00 Ry     beta= 0.70
     Davidson diagonalization with overlap
     ethr =  2.37E-10,  avg # of iterations =  4.2

     total cpu time spent up to now is    16056.1 secs

     total energy              =   -1400.36073218 Ry
     estimated scf accuracy    <       0.00000003 Ry

     iteration #  9     ecut=    60.00 Ry     beta= 0.70
     Davidson diagonalization with overlap
     ethr =  2.14E-11,  avg # of iterations =  3.1

     total cpu time spent up to now is    16127.6 secs

     total energy              =   -1400.36073219 Ry
     estimated scf accuracy    <          8.3E-10 Ry

     iteration # 10     ecut=    60.00 Ry     beta= 0.70
     Davidson diagonalization with overlap
     ethr =  6.11E-13,  avg # of iterations =  4.1

     total cpu time spent up to now is    16217.3 secs

     End of self-consistent calculation

     Number of k-points >= 100: set verbosity='high' to print the bands.

     the Fermi energy is     4.2167 ev

!    total energy              =   -1400.36073219 Ry
     estimated scf accuracy    <          7.0E-11 Ry
     smearing contrib. (-TS)   =       0.00000000 Ry
     internal energy E=F+TS    =   -1400.36073219 Ry

     The total energy is F=E-TS. E is the sum of the following terms:
     one-electron contribution =    -229.00663961 Ry
     hartree contribution      =     155.61982055 Ry
     xc contribution           =    -148.36955013 Ry
     ewald contribution        =    -416.43942050 Ry
     one-center paw contrib.   =    -762.16494251 Ry

     convergence has been achieved in  10 iterations

     Forces acting on atoms (cartesian axes, Ry/au):

     atom    1 type  3   force =     0.00000000    0.00000000    0.00000000
     atom    2 type  3   force =     0.00000000    0.00000000    0.00000000
     atom    3 type  3   force =     0.00000000    0.00000000    0.00000000
     atom    4 type  3   force =     0.00000000    0.00000000    0.00000000
     atom    5 type  3   force =     0.00000000    0.00000000    0.00000000
     atom    6 type  3   force =     0.00000000    0.00000000    0.00000000
     atom    7 type  1   force =     0.00047352   -0.00047352   -0.00000000
     atom    8 type  1   force =    -0.00047352   -0.00047352    0.00000000
     atom    9 type  1   force =    -0.00047352   -0.00047352    0.00000000
     atom   10 type  1   force =     0.00047352   -0.00047352    0.00000000
     atom   11 type  1   force =    -0.00047352    0.00047352   -0.00000000
     atom   12 type  1   force =    -0.00047352    0.00047352    0.00000000
     atom   13 type  1   force =     0.00047352    0.00047352   -0.00000000
     atom   14 type  1   force =     0.00047352    0.00047352   -0.00000000
     atom   15 type  1   force =     0.00000000    0.00000000   -0.00000000
     atom   16 type  1   force =     0.00000000    0.00000000   -0.00000000
     atom   17 type  2   force =    -0.00038206    0.00008921   -0.00062359
     atom   18 type  2   force =     0.00038206    0.00008921    0.00062359
     atom   19 type  2   force =    -0.00008921    0.00038206    0.00062359
     atom   20 type  2   force =     0.00038206    0.00008921   -0.00062359
     atom   21 type  2   force =    -0.00008921    0.00038206   -0.00062359
     atom   22 type  2   force =     0.00038206   -0.00008921   -0.00062359
     atom   23 type  2   force =     0.00008921    0.00038206   -0.00062359
     atom   24 type  2   force =     0.00038206   -0.00008921    0.00062359
     atom   25 type  2   force =     0.00008921    0.00038206    0.00062359
     atom   26 type  2   force =    -0.00008921   -0.00038206   -0.00062359
     atom   27 type  2   force =    -0.00038206    0.00008921    0.00062359
     atom   28 type  2   force =    -0.00008921   -0.00038206    0.00062359
     atom   29 type  2   force =    -0.00038206   -0.00008921    0.00062359
     atom   30 type  2   force =     0.00008921   -0.00038206    0.00062359
     atom   31 type  2   force =    -0.00038206   -0.00008921   -0.00062359
     atom   32 type  2   force =     0.00008921   -0.00038206   -0.00062359
     atom   33 type  2   force =    -0.00024495    0.00029582    0.00000000
     atom   34 type  2   force =     0.00024495    0.00029582    0.00000000
     atom   35 type  2   force =    -0.00029582    0.00024495   -0.00000000
     atom   36 type  2   force =     0.00024495   -0.00029582    0.00000000
     atom   37 type  2   force =     0.00029582    0.00024495    0.00000000
     atom   38 type  2   force =    -0.00029582   -0.00024495    0.00000000
     atom   39 type  2   force =    -0.00024495   -0.00029582    0.00000000
     atom   40 type  2   force =     0.00029582   -0.00024495   -0.00000000
     atom   41 type  2   force =     0.00000000    0.00000000    0.00053854
     atom   42 type  2   force =     0.00000000    0.00000000   -0.00053854
     atom   43 type  2   force =     0.00000000    0.00000000    0.00053854
     atom   44 type  2   force =     0.00000000    0.00000000   -0.00053854

     Total force =     0.003823     Total SCF correction =     0.000002


     Computing stress (Cartesian axis) and pressure

          total   stress  (Ry/bohr**3)                   (kbar)     P=        0.28
   0.00000126   0.00000000   0.00000000            0.19        0.00        0.00
   0.00000000   0.00000126   0.00000000            0.00        0.19        0.00
   0.00000000   0.00000000   0.00000320            0.00        0.00        0.47


     Writing all to output data dir ./basic.save/
 
     init_run     :     66.49s CPU     67.52s WALL (       2 calls)
     electrons    :  15262.65s CPU  15438.69s WALL (      20 calls)
     update_pot   :     12.13s CPU     12.23s WALL (      18 calls)
     forces       :    242.43s CPU    244.08s WALL (      20 calls)
     stress       :    436.48s CPU    440.20s WALL (      20 calls)

     Called by init_run:
     wfcinit      :     65.06s CPU     65.81s WALL (       2 calls)
     potinit      :      0.50s CPU      0.51s WALL (       2 calls)
     hinit0       :      0.66s CPU      0.91s WALL (       2 calls)

     Called by electrons:
     c_bands      :  13799.33s CPU  13956.43s WALL (     180 calls)
     sum_band     :   1437.75s CPU   1454.82s WALL (     180 calls)
     v_of_rho     :      1.36s CPU      1.37s WALL (     195 calls)
     newd         :      7.80s CPU      8.65s WALL (     195 calls)
     PAW_pot      :     20.06s CPU     20.69s WALL (     213 calls)
     mix_rho      :      0.46s CPU      0.46s WALL (     180 calls)

     Called by c_bands:
     init_us_2    :     90.20s CPU     92.91s WALL (  120960 calls)
     init_us_2:cp :     89.66s CPU     92.62s WALL (  120960 calls)
     cegterg      :  13377.08s CPU  13528.97s WALL (   52062 calls)

     Called by *egterg:
     cdiaghg      :   2148.28s CPU   2171.00s WALL (  269720 calls)
     h_psi        :   7652.17s CPU   7740.48s WALL (  277142 calls)
     s_psi        :    766.86s CPU    772.65s WALL (  277142 calls)
     g_psi        :     10.76s CPU     10.88s WALL (  224504 calls)

     Called by h_psi:
     h_psi:calbec :   1225.31s CPU   1234.88s WALL (  277142 calls)
     vloc_psi     :   5508.74s CPU   5581.37s WALL (  277142 calls)
     add_vuspsi   :    898.18s CPU    904.57s WALL (  277142 calls)

     General routines
     calbec       :   1886.18s CPU   1900.12s WALL (  362966 calls)
     fft          :      1.50s CPU      1.71s WALL (    2668 calls)
     ffts         :      0.08s CPU      0.08s WALL (     180 calls)
     fftw         :   6109.15s CPU   6190.14s WALL (28998678 calls)
 
     Parallel routines
 
     PWSCF        :      4h28m CPU      4h31m WALL

 
   This run was terminated on:  20:47:10   5Dec2023            

=------------------------------------------------------------------------------=
   JOB DONE.
=------------------------------------------------------------------------------=
