
     Program PWSCF v.7.0 starts on  6Dec2023 at 21:57:33 

     This program is part of the open-source Quantum ESPRESSO suite
     for quantum simulation of materials; please cite
         "P. Giannozzi et al., J. Phys.:Condens. Matter 21 395502 (2009);
         "P. Giannozzi et al., J. Phys.:Condens. Matter 29 465901 (2017);
         "P. Giannozzi et al., J. Chem. Phys. 152 154105 (2020);
          URL http://www.quantum-espresso.org", 
     in publications or presentations arising from this work. More details at
     http://www.quantum-espresso.org/quote

     Parallel version (MPI & OpenMP), running on      48 processor cores
     Number of MPI processes:                48
     Threads/MPI process:                     1

     MPI processes distributed on     2 nodes
     R & G space division:  proc/nbgrp/npool/nimage =      48
     194073 MiB available memory on the printing compute node when the environment starts
 
     Waiting for input...
     Reading input from standard input

     Current dimensions of program PWSCF are:
     Max number of different atomic species (ntypx) = 10
     Max number of k-points (npk) =  40000
     Max angular momentum in pseudopotentials (lmaxx) =  4
     file Al.pbe-n-kjpaw_psl.1.0.0.UPF: wavefunction(s)  3S 3P renormalized

     IMPORTANT: XC functional enforced from input :
     Exchange-correlation= PBE
                           (   1   4   3   4   0   0   0)
     Any further DFT definition will be discarded
     Please, verify this is what you really want

     Message from routine set_cutoff:
     ecutrho < 4*ecutwfc, are you sure?
     Found identity + ( -0.3333  0.3333  0.3333) symmetry
     This is a supercell, fractional translations are disabled
     Message from routine setup:
     using ibrav=0 with symmetry is DISCOURAGED, use correct ibrav instead

     Subspace diagonalization in iterative solution of the eigenvalue problem:
     one sub-group per band group will be used
     scalapack distributed-memory algorithm (size of sub-group:  6*  6 procs)

 
     Parallelization info
     --------------------
     sticks:   dense  smooth     PW     G-vecs:    dense   smooth      PW
     Min          64      64     24                 3450     3450     794
     Max          65      65     25                 3459     3459     801
     Sum        3103    3103   1159               165853   165853   38239
 
     Using Slab Decomposition
 


     bravais-lattice index     =            0
     lattice parameter (alat)  =      15.0344  a.u.
     unit-cell volume          =    3473.1695 (a.u.)^3
     number of atoms/cell      =           60
     number of atomic types    =            3
     number of electrons       =       108.00
     number of Kohn-Sham states=           65
     kinetic-energy cutoff     =      70.0000  Ry
     charge density cutoff     =     200.0000  Ry
     scf convergence threshold =      1.0E-08
     mixing beta               =       0.7000
     number of iterations used =            8  plain     mixing
     energy convergence thresh.=      1.0E-04
     force convergence thresh. =      1.0E-03
     press convergence thresh. =      5.0E-01
     Exchange-correlation= PBE
                           (   1   4   3   4   0   0   0)
     nstep                     =           50


     celldm(1)=  15.034396  celldm(2)=   0.000000  celldm(3)=   0.000000
     celldm(4)=   0.000000  celldm(5)=   0.000000  celldm(6)=   0.000000

     crystal axes: (cart. coord. in units of alat)
               a(1) = (   1.000000   0.000000   0.000000 )  
               a(2) = (  -0.500000   0.866025   0.000000 )  
               a(3) = (   0.000000   0.000000   1.180150 )  

     reciprocal axes: (cart. coord. in units 2 pi/alat)
               b(1) = (  1.000000  0.577350  0.000000 )  
               b(2) = (  0.000000  1.154701  0.000000 )  
               b(3) = (  0.000000  0.000000  0.847350 )  


     PseudoPot. # 1 for Al read from file:
     ./Al.pbe-n-kjpaw_psl.1.0.0.UPF
     MD5 check sum: cfc449ca30b5f3223ec38ddd88ac046d
     Pseudo is Projector augmented-wave + core cor, Zval =  3.0
     Generated using "atomic" code by A. Dal Corso  v.5.1
     Shape of augmentation charge: PSQ
     Using radial grid of 1135 points,  6 beta functions with: 
                l(1) =   0
                l(2) =   0
                l(3) =   1
                l(4) =   1
                l(5) =   2
                l(6) =   2
     Q(r) pseudized with 0 coefficients 


     PseudoPot. # 2 for Li read from file:
     ./li_pbe_v1.4.uspp.F.UPF
     MD5 check sum: e912e257baa3777c20ea3d68f190483c
     Pseudo is Ultrasoft, Zval =  3.0
     Generated by new atomic code, or converted to UPF format
     Using radial grid of  751 points,  5 beta functions with: 
                l(1) =   0
                l(2) =   0
                l(3) =   0
                l(4) =   1
                l(5) =   1
     Q(r) pseudized with 10 coefficients,  rinner =    1.150   1.150   1.150


     PseudoPot. # 3 for H  read from file:
     ./H.pbe-rrkjus_psl.1.0.0.UPF
     MD5 check sum: f52b6d4d1c606e5624b1dc7b2218f220
     Pseudo is Ultrasoft, Zval =  1.0
     Generated using "atomic" code by A. Dal Corso  v.5.1
     Using radial grid of  929 points,  2 beta functions with: 
                l(1) =   0
                l(2) =   0
     Q(r) pseudized with 0 coefficients 


     atomic species   valence    mass     pseudopotential
        Al             3.00    26.98100     Al( 1.00)
        Li             3.00     6.96750     Li( 1.00)
        H              1.00     1.00750     H ( 1.00)

      6 Sym. Ops., with inversion, found



   Cartesian axes

     site n.     atom                  positions (alat units)
         1           Al  tau(   1) = (   0.0000000   0.0000000   0.5900752  )
         2           Al  tau(   2) = (   0.0000000   0.0000000   0.0000000  )
         3           Al  tau(   3) = (   0.5000000   0.2886751   0.9834586  )
         4           Al  tau(   4) = (   0.5000000   0.2886751   0.3933835  )
         5           Al  tau(   5) = (  -0.0000000   0.5773503   0.1966917  )
         6           Al  tau(   6) = (  -0.0000000   0.5773503   0.7867669  )
         7           Li  tau(   7) = (   0.0909959   0.3449420   0.5419916  )
         8           Li  tau(   8) = (   0.1557736   0.7723592   0.5419916  )
         9           Li  tau(   9) = (   0.4090041   0.5210834   0.6381587  )
        10           Li  tau(  10) = (   0.3442264   0.0936662   0.6381587  )
        11           Li  tau(  11) = (  -0.2467695   0.6147497   0.5419916  )
        12           Li  tau(  12) = (   0.7467695   0.2512757   0.6381587  )
        13           Li  tau(  13) = (   0.5909959   0.6336171   0.9353751  )
        14           Li  tau(  14) = (   0.1557736   0.1950089   0.9353751  )
        15           Li  tau(  15) = (  -0.0909959   0.8097586   1.0315422  )
        16           Li  tau(  16) = (  -0.1557736   0.3823414   1.0315422  )
        17           Li  tau(  17) = (   0.7532305   0.0373994   0.9353751  )
        18           Li  tau(  18) = (   0.2467695   0.5399509   1.0315422  )
        19           Li  tau(  19) = (   0.5909959   0.0562668   0.1486082  )
        20           Li  tau(  20) = (   0.6557736   0.4836840   0.1486082  )
        21           Li  tau(  21) = (  -0.0909959   0.2324083   0.2447753  )
        22           Li  tau(  22) = (   0.3442264   0.6710165   0.2447753  )
        23           Li  tau(  23) = (   0.2532305   0.3260745   0.1486082  )
        24           Li  tau(  24) = (  -0.2532305   0.8286260   0.2447753  )
        25           H   tau(  25) = (   0.5686017   0.1300885   0.5254411  )
        26           H   tau(  26) = (  -0.0686017   0.7359369   0.6547093  )
        27           H   tau(  27) = (   0.3891985   0.7196562   0.4725268  )
        28           H   tau(  28) = (  -0.3178399   0.8432531   0.4725268  )
        29           H   tau(  29) = (  -0.0713587   0.1691415   0.4725268  )
        30           H   tau(  30) = (   0.1108015   0.1463692   0.7076236  )
        31           H   tau(  31) = (   0.8178399   0.0227723   0.7076236  )
        32           H   tau(  32) = (   0.5713587   0.6968839   0.7076236  )
        33           H   tau(  33) = (  -0.1030392   0.4386462   0.6547093  )
        34           H   tau(  34) = (   0.3283591   0.3085576   0.5254411  )
        35           H   tau(  35) = (   0.6030392   0.4273792   0.5254411  )
        36           H   tau(  36) = (   0.1716409   0.5574678   0.6547093  )
        37           H   tau(  37) = (   0.0686017   0.4187637   0.9188245  )
        38           H   tau(  38) = (  -0.0686017   0.1585866   1.0480927  )
        39           H   tau(  39) = (   0.3891986   0.1423060   0.8659103  )
        40           H   tau(  40) = (   0.6821601   0.2659029   0.8659103  )
        41           H   tau(  41) = (   0.4286413   0.4578166   0.8659103  )
        42           H   tau(  42) = (   0.6108014   0.4350443   1.1010070  )
        43           H   tau(  43) = (   0.3178398   0.3114474   1.1010070  )
        44           H   tau(  44) = (   0.5713587   0.1195337   1.1010070  )
        45           H   tau(  45) = (   0.3969608   0.7273213   1.0480927  )
        46           H   tau(  46) = (  -0.1716409   0.5972328   0.9188245  )
        47           H   tau(  47) = (   0.1030392   0.7160544   0.9188245  )
        48           H   tau(  48) = (  -0.3283591   0.8461429   1.0480927  )
        49           H   tau(  49) = (   0.5686017   0.7074388   0.1320576  )
        50           H   tau(  50) = (   0.4313983   0.4472617   0.2613258  )
        51           H   tau(  51) = (  -0.1108014   0.4309811   0.0791434  )
        52           H   tau(  52) = (   0.1821602   0.5545780   0.0791434  )
        53           H   tau(  53) = (  -0.0713587   0.7464917   0.0791434  )
        54           H   tau(  54) = (   0.1108014   0.7237194   0.3142401  )
        55           H   tau(  55) = (  -0.1821601   0.6001225   0.3142401  )
        56           H   tau(  56) = (   0.0713587   0.4082088   0.3142401  )
        57           H   tau(  57) = (   0.3969608   0.1499710   0.2613258  )
        58           H   tau(  58) = (   0.8283591   0.0198825   0.1320576  )
        59           H   tau(  59) = (   0.1030392   0.1387041   0.1320576  )
        60           H   tau(  60) = (   0.6716409   0.2687926   0.2613258  )

     number of k points=     8  Marzari-Vanderbilt smearing, width (Ry)=  0.0050
                       cart. coord. in units 2pi/alat
        k(    1) = (   0.0000000   0.0000000   0.0000000), wk =   0.0740741
        k(    2) = (   0.0000000   0.0000000   0.2824499), wk =   0.1481481
        k(    3) = (   0.0000000   0.3849002   0.0000000), wk =   0.4444444
        k(    4) = (   0.0000000   0.3849002   0.2824499), wk =   0.4444444
        k(    5) = (   0.3333333   0.5773503   0.0000000), wk =   0.1481481
        k(    6) = (   0.3333333   0.5773503   0.2824499), wk =   0.1481481
        k(    7) = (   0.0000000  -0.3849002   0.2824499), wk =   0.4444444
        k(    8) = (  -0.3333333  -0.5773503   0.2824499), wk =   0.1481481

     Dense  grid:   165853 G-vectors     FFT dimensions: (  72,  72,  80)

     Estimated max dynamical RAM per process >      34.87 MB

     Estimated total dynamical RAM >       1.63 GB

     Initial potential from superposition of free atoms

     starting charge      99.8725, renormalised to     108.0000
     Starting wfcs are  150 randomized atomic wfcs
     Checking if some PAW data can be deallocated... 

     total cpu time spent up to now is        2.5 secs

     Self-consistent Calculation

     iteration #  1     ecut=    70.00 Ry     beta= 0.70
     Davidson diagonalization with overlap
     ethr =  1.00E-02,  avg # of iterations =  3.8

     total cpu time spent up to now is        4.2 secs

     total energy              =    -540.32602507 Ry
     estimated scf accuracy    <       2.64848685 Ry

     iteration #  2     ecut=    70.00 Ry     beta= 0.70
     Davidson diagonalization with overlap
     ethr =  2.45E-03,  avg # of iterations =  2.0

     total cpu time spent up to now is        5.9 secs

     total energy              =    -540.63046601 Ry
     estimated scf accuracy    <       0.09096593 Ry

     iteration #  3     ecut=    70.00 Ry     beta= 0.70
     Davidson diagonalization with overlap
     ethr =  8.42E-05,  avg # of iterations =  9.6

     total cpu time spent up to now is        9.0 secs

     total energy              =    -540.72974827 Ry
     estimated scf accuracy    <       0.02043874 Ry

     iteration #  4     ecut=    70.00 Ry     beta= 0.70
     Davidson diagonalization with overlap
     ethr =  1.89E-05,  avg # of iterations =  9.1

     total cpu time spent up to now is       11.3 secs

     total energy              =    -540.73121990 Ry
     estimated scf accuracy    <       0.00123686 Ry

     iteration #  5     ecut=    70.00 Ry     beta= 0.70
     Davidson diagonalization with overlap
     ethr =  1.15E-06,  avg # of iterations =  9.8

     total cpu time spent up to now is       14.1 secs

     total energy              =    -540.73170334 Ry
     estimated scf accuracy    <       0.00080817 Ry

     iteration #  6     ecut=    70.00 Ry     beta= 0.70
     Davidson diagonalization with overlap
     ethr =  7.48E-07,  avg # of iterations =  1.1

     total cpu time spent up to now is       15.4 secs

     total energy              =    -540.73152619 Ry
     estimated scf accuracy    <       0.00043349 Ry

     iteration #  7     ecut=    70.00 Ry     beta= 0.70
     Davidson diagonalization with overlap
     ethr =  4.01E-07,  avg # of iterations =  2.5

     total cpu time spent up to now is       17.1 secs

     total energy              =    -540.73154999 Ry
     estimated scf accuracy    <       0.00024797 Ry

     iteration #  8     ecut=    70.00 Ry     beta= 0.70
     Davidson diagonalization with overlap
     ethr =  2.30E-07,  avg # of iterations =  2.0

     total cpu time spent up to now is       18.7 secs

     total energy              =    -540.73156641 Ry
     estimated scf accuracy    <       0.00000226 Ry

     iteration #  9     ecut=    70.00 Ry     beta= 0.70
     Davidson diagonalization with overlap
     ethr =  2.09E-09,  avg # of iterations =  6.0

     total cpu time spent up to now is       21.6 secs

     total energy              =    -540.73156968 Ry
     estimated scf accuracy    <       0.00000112 Ry

     iteration # 10     ecut=    70.00 Ry     beta= 0.70
     Davidson diagonalization with overlap
     ethr =  1.03E-09,  avg # of iterations =  2.0

     total cpu time spent up to now is       23.3 secs

     total energy              =    -540.73156982 Ry
     estimated scf accuracy    <       0.00000016 Ry

     iteration # 11     ecut=    70.00 Ry     beta= 0.70
     Davidson diagonalization with overlap
     ethr =  1.49E-10,  avg # of iterations =  2.8

     total cpu time spent up to now is       24.9 secs

     total energy              =    -540.73156982 Ry
     estimated scf accuracy    <       0.00000007 Ry

     iteration # 12     ecut=    70.00 Ry     beta= 0.70
     Davidson diagonalization with overlap
     ethr =  6.34E-11,  avg # of iterations =  2.0

     total cpu time spent up to now is       26.5 secs

     End of self-consistent calculation

          k = 0.0000 0.0000 0.0000 ( 34217 PWs)   bands (ev):

   -43.6108 -43.6053 -43.6052 -43.6015 -43.6015 -43.6014 -43.6014 -43.5998
   -43.5998 -43.5952 -43.5952 -43.5951 -43.5951 -43.5951 -43.5951 -43.5925
   -43.5925 -43.5901  -6.5803  -5.7273  -5.7273  -5.4714  -5.4714  -5.0485
    -3.2301  -3.2301  -3.2301  -3.2301  -3.0624  -3.0624  -2.5923  -2.5923
    -2.5409  -2.4496  -2.4496  -2.4495  -2.4495  -1.7686  -1.7686  -1.5460
    -1.5460  -1.1915  -1.1915  -1.0304  -0.3172  -0.3172   0.3440   0.3440
     0.3440   0.3440   0.5784   0.5784   0.5784   0.5784   4.6396   4.7857
     4.7857   5.6421   5.6429   5.6437   5.7849   5.7850   5.7850   6.0558
     6.1144

          k = 0.0000 0.0000 0.2824 ( 34265 PWs)   bands (ev):

   -43.6100 -43.6080 -43.6031 -43.6018 -43.6018 -43.6009 -43.6009 -43.6002
   -43.6002 -43.5953 -43.5953 -43.5951 -43.5951 -43.5950 -43.5950 -43.5937
   -43.5912 -43.5904  -6.4649  -6.1436  -5.5044  -5.4034  -5.3727  -5.1690
    -3.1533  -3.1533  -3.1111  -3.1082  -3.1082  -2.8716  -2.8716  -2.8199
    -2.8199  -2.5983  -2.4364  -2.4212  -1.9504  -1.9504  -1.5274  -1.5274
    -1.4810  -1.2748  -1.0256  -1.0256  -0.3283  -0.3283  -0.1623  -0.1623
     0.1777   0.1777   0.7459   0.7459   0.8689   0.8689   4.6986   4.8658
     5.2953   5.2953   5.3463   5.3463   5.3854   5.4057   5.9710   6.3194
     6.6232

          k = 0.0000 0.3849 0.0000 ( 34359 PWs)   bands (ev):

   -43.6091 -43.6051 -43.6048 -43.6041 -43.6030 -43.6014 -43.6008 -43.6003
   -43.6001 -43.5967 -43.5957 -43.5950 -43.5941 -43.5936 -43.5936 -43.5923
   -43.5921 -43.5910  -6.3662  -5.8289  -5.6794  -5.5903  -5.5872  -5.2715
    -3.6315  -3.4659  -3.2041  -3.0722  -2.9565  -2.7429  -2.7079  -2.4742
    -2.3628  -2.2735  -2.2524  -1.9366  -1.9103  -1.9057  -1.6918  -1.6555
    -1.5821  -1.4348  -1.0633  -0.5374  -0.5254  -0.3360  -0.1851  -0.1470
    -0.0460   0.0378   0.3464   0.5030   0.5288   0.8332   4.8406   4.8685
     4.9945   5.0339   5.2457   5.3849   5.4206   5.7615   5.7680   6.0373
     6.2108

          k = 0.0000 0.3849 0.2824 ( 34321 PWs)   bands (ev):

   -43.6084 -43.6066 -43.6045 -43.6040 -43.6027 -43.6021 -43.6012 -43.5994
   -43.5982 -43.5969 -43.5965 -43.5964 -43.5938 -43.5933 -43.5931 -43.5926
   -43.5917 -43.5912  -6.2586  -5.9574  -5.7115  -5.6296  -5.5315  -5.3362
    -3.5302  -3.3777  -3.1837  -2.9927  -2.7747  -2.7442  -2.6033  -2.4663
    -2.3821  -2.2434  -2.2368  -2.1501  -2.0382  -1.9970  -1.9029  -1.7840
    -1.5006  -1.3677  -0.8782  -0.7369  -0.6342  -0.3809  -0.3364  -0.0773
     0.1190   0.1429   0.3048   0.3512   0.6745   0.8963   4.8904   4.9131
     5.0481   5.0651   5.3298   5.5964   5.6504   5.6777   5.8565   5.9825
     6.0892

          k = 0.3333 0.5774 0.0000 ( 34368 PWs)   bands (ev):

   -43.6064 -43.6064 -43.6064 -43.6025 -43.6025 -43.6025 -43.6012 -43.6012
   -43.6012 -43.5953 -43.5953 -43.5953 -43.5936 -43.5936 -43.5936 -43.5918
   -43.5918 -43.5918  -5.9906  -5.9906  -5.9906  -5.5035  -5.5035  -5.5035
    -3.4080  -3.4080  -3.4080  -3.0753  -3.0753  -3.0753  -2.3773  -2.3773
    -2.3773  -2.0441  -2.0441  -2.0441  -1.7247  -1.7247  -1.7246  -1.4241
    -1.4241  -1.4241  -0.8899  -0.8899  -0.8899  -0.4482  -0.4482  -0.4482
     0.3465   0.3465   0.3465   0.3905   0.3905   0.3905   4.8987   4.8987
     4.8987   5.0866   5.0866   5.0866   5.5403   5.5403   5.5405   5.8088
     5.8088

          k = 0.3333 0.5774 0.2824 ( 34344 PWs)   bands (ev):

   -43.6057 -43.6057 -43.6057 -43.6044 -43.6044 -43.6044 -43.5993 -43.5993
   -43.5993 -43.5965 -43.5965 -43.5965 -43.5928 -43.5928 -43.5928 -43.5922
   -43.5922 -43.5922  -5.8958  -5.8958  -5.8958  -5.6542  -5.6542  -5.6542
    -3.1519  -3.1519  -3.1519  -3.0670  -3.0670  -3.0670  -2.4100  -2.4100
    -2.4099  -2.0920  -2.0920  -2.0920  -1.9569  -1.9569  -1.9569  -1.5433
    -1.5433  -1.5433  -0.7390  -0.7390  -0.7390  -0.2365  -0.2365  -0.2365
     0.0171   0.0171   0.0171   0.5569   0.5569   0.5569   4.6881   4.6881
     4.6881   5.3879   5.3879   5.3879   5.7987   5.7987   5.7989   6.1645
     6.1646

          k = 0.0000-0.3849 0.2824 ( 34321 PWs)   bands (ev):

   -43.6084 -43.6066 -43.6046 -43.6033 -43.6032 -43.6027 -43.6011 -43.5986
   -43.5985 -43.5977 -43.5962 -43.5959 -43.5938 -43.5934 -43.5931 -43.5928
   -43.5917 -43.5911  -6.2549  -5.9693  -5.7577  -5.5222  -5.4708  -5.4585
    -3.5118  -3.2281  -3.1696  -3.0168  -3.0114  -2.8726  -2.4737  -2.4658
    -2.3873  -2.2294  -2.2240  -2.1316  -2.0299  -2.0131  -1.8963  -1.5789
    -1.4621  -1.2056  -1.1795  -0.9329  -0.7768  -0.4368  -0.1074   0.0554
     0.1655   0.1658   0.2049   0.6109   0.6129   0.7031   4.6397   5.1426
     5.1451   5.1788   5.3147   5.3306   5.5419   5.7621   5.9824   6.0633
     6.1381

          k =-0.3333-0.5774 0.2824 ( 34344 PWs)   bands (ev):

   -43.6060 -43.6060 -43.6060 -43.6038 -43.6038 -43.6038 -43.6000 -43.6000
   -43.6000 -43.5960 -43.5960 -43.5960 -43.5930 -43.5930 -43.5930 -43.5921
   -43.5921 -43.5921  -5.8989  -5.8989  -5.8989  -5.6497  -5.6497  -5.6497
    -3.1923  -3.1923  -3.1923  -2.9921  -2.9921  -2.9921  -2.5629  -2.5629
    -2.5629  -2.0538  -2.0538  -2.0538  -1.8890  -1.8890  -1.8890  -1.3792
    -1.3792  -1.3792  -0.7595  -0.7595  -0.7595  -0.5750  -0.5750  -0.5750
     0.1879   0.1879   0.1879   0.5869   0.5869   0.5869   4.8935   4.8935
     4.8935   5.3201   5.3201   5.3202   5.7517   5.7517   5.7518   6.0167
     6.0168

     the Fermi energy is     4.0788 ev

!    total energy              =    -540.73156982 Ry
     estimated scf accuracy    <          2.7E-09 Ry
     smearing contrib. (-TS)   =      -0.00000000 Ry
     internal energy E=F+TS    =    -540.73156982 Ry

     The total energy is F=E-TS. E is the sum of the following terms:
     one-electron contribution =    -140.81004379 Ry
     hartree contribution      =      70.90541730 Ry
     xc contribution           =    -103.68045567 Ry
     ewald contribution        =    -159.10171464 Ry
     one-center paw contrib.   =    -208.04477303 Ry

     convergence has been achieved in  12 iterations

     Forces acting on atoms (cartesian axes, Ry/au):

     atom    1 type  1   force =     0.00000000    0.00000000   -0.00000000
     atom    2 type  1   force =     0.00000000    0.00000000   -0.00000000
     atom    3 type  1   force =     0.00000000   -0.00000000    0.00000185
     atom    4 type  1   force =     0.00000000   -0.00000000    0.00000042
     atom    5 type  1   force =     0.00000000    0.00000000   -0.00000185
     atom    6 type  1   force =     0.00000000   -0.00000000   -0.00000042
     atom    7 type  2   force =    -0.00013679   -0.00018402   -0.00029300
     atom    8 type  2   force =     0.00022776   -0.00002645   -0.00029300
     atom    9 type  2   force =     0.00013679    0.00018402    0.00029300
     atom   10 type  2   force =    -0.00022776    0.00002645    0.00029300
     atom   11 type  2   force =    -0.00009098    0.00021047   -0.00029300
     atom   12 type  2   force =     0.00009098   -0.00021047    0.00029300
     atom   13 type  2   force =    -0.00013744   -0.00018589   -0.00032483
     atom   14 type  2   force =     0.00022970   -0.00002608   -0.00032483
     atom   15 type  2   force =     0.00013414    0.00018781    0.00035998
     atom   16 type  2   force =    -0.00022972    0.00002226    0.00035998
     atom   17 type  2   force =    -0.00009227    0.00021197   -0.00032483
     atom   18 type  2   force =     0.00009558   -0.00021008    0.00035998
     atom   19 type  2   force =    -0.00013414   -0.00018781   -0.00035998
     atom   20 type  2   force =     0.00022972   -0.00002226   -0.00035998
     atom   21 type  2   force =     0.00013744    0.00018589    0.00032483
     atom   22 type  2   force =    -0.00022970    0.00002608    0.00032483
     atom   23 type  2   force =    -0.00009558    0.00021008   -0.00035998
     atom   24 type  2   force =     0.00009227   -0.00021197    0.00032483
     atom   25 type  3   force =     0.00137349   -0.00289022    0.00226674
     atom   26 type  3   force =    -0.00137349    0.00289022   -0.00226674
     atom   27 type  3   force =    -0.00189162   -0.00239976   -0.00229810
     atom   28 type  3   force =     0.00302406   -0.00043831   -0.00229810
     atom   29 type  3   force =    -0.00113244    0.00283807   -0.00229810
     atom   30 type  3   force =     0.00189162    0.00239976    0.00229810
     atom   31 type  3   force =    -0.00302406    0.00043831    0.00229810
     atom   32 type  3   force =     0.00113244   -0.00283807    0.00229810
     atom   33 type  3   force =    -0.00181626   -0.00263459   -0.00226674
     atom   34 type  3   force =    -0.00318975    0.00025563    0.00226674
     atom   35 type  3   force =     0.00181626    0.00263459    0.00226674
     atom   36 type  3   force =     0.00318975   -0.00025563   -0.00226674
     atom   37 type  3   force =     0.00137326   -0.00289012    0.00225202
     atom   38 type  3   force =    -0.00137286    0.00289056   -0.00226462
     atom   39 type  3   force =    -0.00189344   -0.00240223   -0.00228648
     atom   40 type  3   force =     0.00302711   -0.00043865   -0.00228648
     atom   41 type  3   force =    -0.00113368    0.00284088   -0.00228648
     atom   42 type  3   force =     0.00188962    0.00239738    0.00229377
     atom   43 type  3   force =    -0.00302100    0.00043777    0.00229377
     atom   44 type  3   force =     0.00113138   -0.00283515    0.00229377
     atom   45 type  3   force =    -0.00181687   -0.00263421   -0.00226462
     atom   46 type  3   force =    -0.00318955    0.00025578    0.00225202
     atom   47 type  3   force =     0.00181629    0.00263434    0.00225202
     atom   48 type  3   force =     0.00318973   -0.00025635   -0.00226462
     atom   49 type  3   force =     0.00137286   -0.00289056    0.00226462
     atom   50 type  3   force =    -0.00137326    0.00289012   -0.00225202
     atom   51 type  3   force =    -0.00188962   -0.00239738   -0.00229377
     atom   52 type  3   force =     0.00302100   -0.00043777   -0.00229377
     atom   53 type  3   force =    -0.00113138    0.00283515   -0.00229377
     atom   54 type  3   force =     0.00189344    0.00240223    0.00228648
     atom   55 type  3   force =    -0.00302711    0.00043865    0.00228648
     atom   56 type  3   force =     0.00113368   -0.00284088    0.00228648
     atom   57 type  3   force =    -0.00181629   -0.00263434   -0.00225202
     atom   58 type  3   force =    -0.00318973    0.00025635    0.00226462
     atom   59 type  3   force =     0.00181687    0.00263421    0.00226462
     atom   60 type  3   force =     0.00318955   -0.00025578   -0.00225202

     Total force =     0.023279     Total SCF correction =     0.000030


     Computing stress (Cartesian axis) and pressure

          total   stress  (Ry/bohr**3)                   (kbar)     P=       11.82
   0.00008146  -0.00000000   0.00000000           11.98       -0.00        0.00
   0.00000000   0.00008146   0.00000000            0.00       11.98        0.00
   0.00000000  -0.00000000   0.00007805            0.00       -0.00       11.48


     BFGS Geometry Optimization
     Energy error            =      0.0E+00 Ry
     Gradient error          =      3.2E-03 Ry/Bohr
     Cell gradient error     =      1.2E+01 kbar

     number of scf cycles    =   1
     number of bfgs steps    =   0

     enthalpy           new  =    -540.7315698222 Ry

     new trust radius        =       0.0240032653 bohr
     new conv_thr            =       0.0000000100 Ry

     new unit-cell volume =   3494.13428 a.u.^3 (   517.77728 Ang^3 )
     density =      1.03771 g/cm^3

CELL_PARAMETERS (alat= 15.03439649)
   1.002036467   0.000000000   0.000000000
  -0.501018233   0.867789036  -0.000000000
   0.000000000   0.000000000   1.182453054

ATOMIC_POSITIONS (crystal)
Al            0.0000000000        0.0000000000        0.5000000000
Al            0.0000000000        0.0000000000       -0.0000000000
Al            0.6666666667        0.3333333333        0.8333334342
Al            0.6666666667        0.3333333333        0.3333333569
Al            0.3333333333        0.6666666667        0.1666665658
Al            0.3333333333        0.6666666667        0.6666666431
Li            0.2901320549        0.3982905262        0.4592399065
Li            0.6017094738        0.8918415387        0.4592399065
Li            0.7098679451        0.6017094738        0.5407600935
Li            0.3982905262        0.1081584613        0.5407600935
Li            0.1081584613        0.7098679451        0.4592399065
Li            0.8918415387        0.2901320549        0.5407600935
Li            0.9567986100        0.7316237129        0.7925714423
Li            0.2683762871        0.2251748971        0.7925714423
Li            0.3765345747        0.9350431049        0.8740972088
Li            0.0649568951        0.4414914798        0.8740972088
Li            0.7748251029        0.0432013900        0.7925714423
Li            0.5585085202        0.6234654253        0.8740972088
Li            0.6234654253        0.0649568951        0.1259027912
Li            0.9350431049        0.5585085202        0.1259027912
Li            0.0432013900        0.2683762871        0.2074285577
Li            0.7316237129        0.7748251029        0.2074285577
Li            0.4414914798        0.3765345747        0.1259027912
Li            0.2251748971        0.9567986100        0.2074285577
H             0.6436887062        0.1499913196        0.4453600652
H             0.3563112938        0.8500086804        0.5546399348
H             0.8044742953        0.8308031294        0.4002659076
H             0.1691968706        0.9736711759        0.4002659076
H             0.0263288241        0.1955257047        0.4002659076
H             0.1955257047        0.1691968706        0.5997340924
H             0.8308031294        0.0263288241        0.5997340924
H             0.9736711759        0.8044742953        0.5997340924
H             0.1499913196        0.5063026133        0.5546399348
H             0.5063026133        0.3563112938        0.4453600652
H             0.8500086804        0.4936973867        0.4453600652
H             0.4936973867        0.6436887062        0.5546399348
H             0.3103553651        0.4833246574        0.7786925657
H             0.0229780185        0.1833420361        0.8879733845
H             0.4711407492        0.1641362691        0.7335998922
H             0.8358637309        0.3070044802        0.7335998922
H             0.6929955198        0.5288592508        0.7335998922
H             0.8621921405        0.5025300283        0.9330671886
H             0.4974699717        0.3596621222        0.9330671886
H             0.6403378778        0.1378078595        0.9330671886
H             0.8166579639        0.8396359724        0.8879733845
H             0.1729693023        0.6896446349        0.7786925657
H             0.5166753426        0.8270306977        0.7786925657
H             0.1603640276        0.9770219815        0.8879733845
H             0.9770219815        0.8166579639        0.1120266155
H             0.6896446349        0.5166753426        0.2213074343
H             0.1378078595        0.4974699717        0.0669328114
H             0.5025300283        0.6403378778        0.0669328114
H             0.3596621222        0.8621921405        0.0669328114
H             0.5288592508        0.8358637309        0.2664001078
H             0.1641362691        0.6929955198        0.2664001078
H             0.3070044802        0.4711407492        0.2664001078
H             0.4833246574        0.1729693023        0.2213074343
H             0.8396359724        0.0229780185        0.1120266155
H             0.1833420361        0.1603640276        0.1120266155
H             0.8270306977        0.3103553651        0.2213074343



     Writing config-only to output data dir ./LiAlH4.save/
     NEW-OLD atomic charge density approx. for the potential
     extrapolated charge  108.59924, renormalised to  108.00000

     total cpu time spent up to now is       28.8 secs

     Self-consistent Calculation

     iteration #  1     ecut=    70.00 Ry     beta= 0.70
     Davidson diagonalization with overlap
     ethr =  1.00E-06,  avg # of iterations =  3.0

     total cpu time spent up to now is       30.8 secs

     total energy              =    -540.73297159 Ry
     estimated scf accuracy    <       0.00019949 Ry

     iteration #  2     ecut=    70.00 Ry     beta= 0.70
     Davidson diagonalization with overlap
     ethr =  1.85E-07,  avg # of iterations =  5.0

     total cpu time spent up to now is       33.4 secs

     total energy              =    -540.73342143 Ry
     estimated scf accuracy    <       0.00005349 Ry

     iteration #  3     ecut=    70.00 Ry     beta= 0.70
     Davidson diagonalization with overlap
     ethr =  4.95E-08,  avg # of iterations =  1.4

     total cpu time spent up to now is       34.8 secs

     total energy              =    -540.73341763 Ry
     estimated scf accuracy    <       0.00001387 Ry

     iteration #  4     ecut=    70.00 Ry     beta= 0.70
     Davidson diagonalization with overlap
     ethr =  1.28E-08,  avg # of iterations =  2.0

     total cpu time spent up to now is       36.5 secs

     total energy              =    -540.73341944 Ry
     estimated scf accuracy    <       0.00000023 Ry

     iteration #  5     ecut=    70.00 Ry     beta= 0.70
     Davidson diagonalization with overlap
     ethr =  2.13E-10,  avg # of iterations =  6.5

     total cpu time spent up to now is       39.1 secs

     total energy              =    -540.73341962 Ry
     estimated scf accuracy    <       0.00000007 Ry

     iteration #  6     ecut=    70.00 Ry     beta= 0.70
     Davidson diagonalization with overlap
     ethr =  6.86E-11,  avg # of iterations =  2.0

     total cpu time spent up to now is       40.8 secs

     End of self-consistent calculation

          k = 0.0000 0.0000 0.0000 ( 34217 PWs)   bands (ev):

   -43.6483 -43.6429 -43.6429 -43.6392 -43.6392 -43.6391 -43.6391 -43.6376
   -43.6376 -43.6330 -43.6330 -43.6329 -43.6329 -43.6329 -43.6329 -43.6304
   -43.6304 -43.6280  -6.5811  -5.7304  -5.7304  -5.4748  -5.4748  -5.0547
    -3.2436  -3.2436  -3.2436  -3.2436  -3.0753  -3.0753  -2.6054  -2.6054
    -2.5524  -2.4659  -2.4659  -2.4659  -2.4659  -1.7869  -1.7868  -1.5707
    -1.5707  -1.2104  -1.2104  -1.0518  -0.3453  -0.3453   0.3146   0.3146
     0.3146   0.3146   0.5484   0.5484   0.5484   0.5484   4.5762   4.7473
     4.7473   5.6096   5.6096   5.6104   5.7484   5.7484   5.7484   5.7488
     6.0113

          k =-0.0000 0.0000 0.2819 ( 34265 PWs)   bands (ev):

   -43.6475 -43.6455 -43.6407 -43.6395 -43.6395 -43.6386 -43.6386 -43.6379
   -43.6379 -43.6331 -43.6331 -43.6329 -43.6329 -43.6328 -43.6328 -43.6316
   -43.6291 -43.6283  -6.4661  -6.1457  -5.5076  -5.4072  -5.3768  -5.1744
    -3.1674  -3.1674  -3.1244  -3.1218  -3.1218  -2.8865  -2.8865  -2.8335
    -2.8335  -2.6123  -2.4523  -2.4341  -1.9683  -1.9683  -1.5473  -1.5473
    -1.4996  -1.2948  -1.0496  -1.0496  -0.3553  -0.3553  -0.1901  -0.1901
     0.1493   0.1493   0.7152   0.7152   0.8374   0.8374   4.6584   4.8033
     5.2612   5.2612   5.3126   5.3126   5.3249   5.3631   5.9291   6.2815
     6.5746

          k =-0.0000 0.3841 0.0000 ( 34359 PWs)   bands (ev):

   -43.6466 -43.6427 -43.6424 -43.6417 -43.6406 -43.6391 -43.6385 -43.6380
   -43.6378 -43.6345 -43.6336 -43.6328 -43.6320 -43.6315 -43.6315 -43.6302
   -43.6300 -43.6289  -6.3676  -5.8315  -5.6824  -5.5941  -5.5906  -5.2766
    -3.6440  -3.4784  -3.2173  -3.0855  -2.9697  -2.7577  -2.7218  -2.4899
    -2.3780  -2.2879  -2.2685  -1.9539  -1.9274  -1.9229  -1.7100  -1.6747
    -1.6020  -1.4552  -1.0880  -0.5624  -0.5503  -0.3622  -0.2137  -0.1756
    -0.0747   0.0095   0.3163   0.4732   0.4980   0.8025   4.8026   4.8316
     4.9513   4.9852   5.2047   5.3427   5.3769   5.7184   5.7270   5.9899
     6.1628

          k =-0.0000 0.3841 0.2819 ( 34321 PWs)   bands (ev):

   -43.6459 -43.6441 -43.6421 -43.6417 -43.6404 -43.6398 -43.6389 -43.6371
   -43.6359 -43.6347 -43.6343 -43.6342 -43.6317 -43.6312 -43.6309 -43.6305
   -43.6296 -43.6292  -6.2603  -5.9601  -5.7147  -5.6328  -5.5350  -5.3408
    -3.5429  -3.3907  -3.1970  -3.0069  -2.7891  -2.7580  -2.6178  -2.4811
    -2.3979  -2.2586  -2.2533  -2.1660  -2.0565  -2.0127  -1.9213  -1.8016
    -1.5196  -1.3879  -0.9029  -0.7621  -0.6605  -0.4088  -0.3629  -0.1043
     0.0900   0.1132   0.2754   0.3220   0.6436   0.8650   4.8535   4.8694
     5.0097   5.0162   5.2889   5.5519   5.6009   5.6378   5.8179   5.9344
     6.0429

          k = 0.3327 0.5762 0.0000 ( 34368 PWs)   bands (ev):

   -43.6440 -43.6440 -43.6440 -43.6402 -43.6402 -43.6402 -43.6389 -43.6389
   -43.6389 -43.6331 -43.6331 -43.6331 -43.6315 -43.6315 -43.6315 -43.6297
   -43.6297 -43.6297  -5.9928  -5.9928  -5.9928  -5.5075  -5.5075  -5.5075
    -3.4205  -3.4205  -3.4205  -3.0892  -3.0892  -3.0891  -2.3920  -2.3920
    -2.3920  -2.0610  -2.0610  -2.0610  -1.7412  -1.7412  -1.7412  -1.4444
    -1.4443  -1.4443  -0.9147  -0.9147  -0.9146  -0.4759  -0.4759  -0.4759
     0.3165   0.3165   0.3166   0.3611   0.3611   0.3611   4.8602   4.8602
     4.8602   5.0424   5.0425   5.0425   5.5004   5.5004   5.5004   5.7623
     5.7623

          k = 0.3327 0.5762 0.2819 ( 34344 PWs)   bands (ev):

   -43.6433 -43.6433 -43.6433 -43.6420 -43.6420 -43.6420 -43.6371 -43.6371
   -43.6371 -43.6344 -43.6343 -43.6343 -43.6307 -43.6307 -43.6307 -43.6301
   -43.6301 -43.6301  -5.8984  -5.8984  -5.8984  -5.6577  -5.6577  -5.6577
    -3.1655  -3.1655  -3.1655  -3.0809  -3.0809  -3.0809  -2.4243  -2.4243
    -2.4243  -2.1093  -2.1093  -2.1093  -1.9732  -1.9732  -1.9732  -1.5627
    -1.5627  -1.5627  -0.7642  -0.7642  -0.7642  -0.2647  -0.2647  -0.2647
    -0.0111  -0.0111  -0.0111   0.5268   0.5268   0.5268   4.6449   4.6449
     4.6450   5.3518   5.3518   5.3518   5.7560   5.7561   5.7561   6.1131
     6.1131

          k = 0.0000-0.3841 0.2819 ( 34321 PWs)   bands (ev):

   -43.6459 -43.6441 -43.6422 -43.6409 -43.6408 -43.6404 -43.6388 -43.6364
   -43.6363 -43.6355 -43.6340 -43.6338 -43.6316 -43.6313 -43.6310 -43.6307
   -43.6296 -43.6290  -6.2566  -5.9719  -5.7605  -5.5258  -5.4750  -5.4623
    -3.5245  -3.2416  -3.1835  -3.0298  -3.0252  -2.8874  -2.4875  -2.4818
    -2.4012  -2.2456  -2.2393  -2.1483  -2.0469  -2.0310  -1.9128  -1.5965
    -1.4815  -1.2256  -1.2046  -0.9578  -0.8023  -0.4647  -0.1360   0.0274
     0.1365   0.1365   0.1762   0.5809   0.5827   0.6721   4.6023   5.0890
     5.1023   5.1366   5.2720   5.2960   5.4987   5.7259   5.9307   6.0164
     6.0928

          k =-0.3327-0.5762 0.2819 ( 34344 PWs)   bands (ev):

   -43.6436 -43.6436 -43.6436 -43.6414 -43.6414 -43.6414 -43.6377 -43.6377
   -43.6377 -43.6338 -43.6338 -43.6338 -43.6309 -43.6309 -43.6309 -43.6300
   -43.6300 -43.6300  -5.9015  -5.9015  -5.9015  -5.6532  -5.6532  -5.6532
    -3.2059  -3.2059  -3.2059  -3.0062  -3.0062  -3.0062  -2.5773  -2.5773
    -2.5773  -2.0708  -2.0708  -2.0708  -1.9052  -1.9052  -1.9052  -1.3984
    -1.3984  -1.3984  -0.7855  -0.7855  -0.7855  -0.6015  -0.6015  -0.6014
     0.1588   0.1588   0.1588   0.5564   0.5564   0.5564   4.8481   4.8481
     4.8481   5.2860   5.2860   5.2860   5.7018   5.7018   5.7018   5.9760
     5.9760

     the Fermi energy is     4.0309 ev

!    total energy              =    -540.73341963 Ry
     estimated scf accuracy    <          3.3E-09 Ry
     smearing contrib. (-TS)   =      -0.00000000 Ry
     internal energy E=F+TS    =    -540.73341963 Ry

     The total energy is F=E-TS. E is the sum of the following terms:
     one-electron contribution =    -141.27049094 Ry
     hartree contribution      =      70.98739589 Ry
     xc contribution           =    -103.60580700 Ry
     ewald contribution        =    -158.80655438 Ry
     one-center paw contrib.   =    -208.03796320 Ry

     convergence has been achieved in   6 iterations

     Forces acting on atoms (cartesian axes, Ry/au):

     atom    1 type  1   force =     0.00000000    0.00000000    0.00000000
     atom    2 type  1   force =    -0.00000000    0.00000000    0.00000000
     atom    3 type  1   force =    -0.00000000    0.00000000   -0.00000033
     atom    4 type  1   force =     0.00000000   -0.00000000   -0.00000040
     atom    5 type  1   force =     0.00000000   -0.00000000    0.00000033
     atom    6 type  1   force =    -0.00000000    0.00000000    0.00000040
     atom    7 type  2   force =    -0.00022594   -0.00017794   -0.00019648
     atom    8 type  2   force =     0.00026707   -0.00010669   -0.00019648
     atom    9 type  2   force =     0.00022594    0.00017794    0.00019648
     atom   10 type  2   force =    -0.00026707    0.00010669    0.00019648
     atom   11 type  2   force =    -0.00004114    0.00028464   -0.00019648
     atom   12 type  2   force =     0.00004114   -0.00028464    0.00019648
     atom   13 type  2   force =    -0.00022734   -0.00017950   -0.00022511
     atom   14 type  2   force =     0.00026912   -0.00010713   -0.00022511
     atom   15 type  2   force =     0.00022375    0.00018165    0.00025704
     atom   16 type  2   force =    -0.00026919    0.00010295    0.00025704
     atom   17 type  2   force =    -0.00004178    0.00028663   -0.00022511
     atom   18 type  2   force =     0.00004544   -0.00028460    0.00025704
     atom   19 type  2   force =    -0.00022375   -0.00018165   -0.00025704
     atom   20 type  2   force =     0.00026919   -0.00010295   -0.00025704
     atom   21 type  2   force =     0.00022734    0.00017950    0.00022511
     atom   22 type  2   force =    -0.00026912    0.00010713    0.00022511
     atom   23 type  2   force =    -0.00004544    0.00028460   -0.00025704
     atom   24 type  2   force =     0.00004178   -0.00028663    0.00022511
     atom   25 type  3   force =     0.00088945   -0.00169939    0.00140346
     atom   26 type  3   force =    -0.00088945    0.00169939   -0.00140346
     atom   27 type  3   force =    -0.00117878   -0.00139008   -0.00139071
     atom   28 type  3   force =     0.00179323   -0.00032581   -0.00139071
     atom   29 type  3   force =    -0.00061445    0.00171589   -0.00139071
     atom   30 type  3   force =     0.00117878    0.00139008    0.00139071
     atom   31 type  3   force =    -0.00179323    0.00032581    0.00139071
     atom   32 type  3   force =     0.00061445   -0.00171589    0.00139071
     atom   33 type  3   force =    -0.00102699   -0.00161998   -0.00140346
     atom   34 type  3   force =    -0.00191644    0.00007941    0.00140346
     atom   35 type  3   force =     0.00102699    0.00161998    0.00140346
     atom   36 type  3   force =     0.00191644   -0.00007941   -0.00140346
     atom   37 type  3   force =     0.00089000   -0.00169986    0.00139001
     atom   38 type  3   force =    -0.00088894    0.00169954   -0.00140002
     atom   39 type  3   force =    -0.00118040   -0.00139236   -0.00137979
     atom   40 type  3   force =     0.00179602   -0.00032607   -0.00137979
     atom   41 type  3   force =    -0.00061562    0.00171843   -0.00137979
     atom   42 type  3   force =     0.00117704    0.00138795    0.00138812
     atom   43 type  3   force =    -0.00179052    0.00032537    0.00138812
     atom   44 type  3   force =     0.00061348   -0.00171332    0.00138812
     atom   45 type  3   force =    -0.00102738   -0.00161961   -0.00140002
     atom   46 type  3   force =    -0.00191712    0.00007917    0.00139001
     atom   47 type  3   force =     0.00102712    0.00162069    0.00139001
     atom   48 type  3   force =     0.00191631   -0.00007993   -0.00140002
     atom   49 type  3   force =     0.00088894   -0.00169954    0.00140002
     atom   50 type  3   force =    -0.00089000    0.00169986   -0.00139001
     atom   51 type  3   force =    -0.00117704   -0.00138795   -0.00138812
     atom   52 type  3   force =     0.00179052   -0.00032537   -0.00138812
     atom   53 type  3   force =    -0.00061348    0.00171332   -0.00138812
     atom   54 type  3   force =     0.00118040    0.00139236    0.00137979
     atom   55 type  3   force =    -0.00179602    0.00032607    0.00137979
     atom   56 type  3   force =     0.00061562   -0.00171843    0.00137979
     atom   57 type  3   force =    -0.00102712   -0.00162069   -0.00139001
     atom   58 type  3   force =    -0.00191631    0.00007993    0.00140002
     atom   59 type  3   force =     0.00102738    0.00161961    0.00140002
     atom   60 type  3   force =     0.00191712   -0.00007917   -0.00139001

     Total force =     0.014079     Total SCF correction =     0.000033


     Computing stress (Cartesian axis) and pressure

          total   stress  (Ry/bohr**3)                   (kbar)     P=        8.04
   0.00005519  -0.00000000  -0.00000000            8.12       -0.00       -0.00
   0.00000000   0.00005519   0.00000000            0.00        8.12        0.00
  -0.00000000   0.00000000   0.00005363           -0.00        0.00        7.89

     Energy error            =      1.8E-03 Ry
     Gradient error          =      1.9E-03 Ry/Bohr
     Cell gradient error     =      8.1E+00 kbar

     number of scf cycles    =   2
     number of bfgs steps    =   1

     enthalpy           old  =    -540.7315698222 Ry
     enthalpy           new  =    -540.7334196267 Ry

     CASE: enthalpy          _new < enthalpy          _old

     new trust radius        =       0.0264293384 bohr
     new conv_thr            =       0.0000000002 Ry

     new unit-cell volume =   3517.39917 a.u.^3 (   521.22478 Ang^3 )
     density =      1.03085 g/cm^3

CELL_PARAMETERS (alat= 15.03439649)
   1.004276580   0.000000000   0.000000000
  -0.502138290   0.869729031  -0.000000000
  -0.000000000   0.000000000   1.185021846

ATOMIC_POSITIONS (crystal)
Al            0.0000000000       -0.0000000000        0.5000000000
Al            0.0000000000        0.0000000000        0.0000000000
Al            0.6666666667        0.3333333333        0.8333334052
Al            0.6666666667        0.3333333333        0.3333333209
Al            0.3333333333        0.6666666667        0.1666665948
Al            0.3333333333        0.6666666667        0.6666666791
Li            0.2900967440        0.3982684234        0.4592219632
Li            0.6017315766        0.8918283307        0.4592219632
Li            0.7099032560        0.6017315766        0.5407780368
Li            0.3982684234        0.1081716693        0.5407780368
Li            0.1081716693        0.7099032560        0.4592219632
Li            0.8918283307        0.2900967440        0.5407780368
Li            0.9567630521        0.7316014165        0.7925508888
Li            0.2683985835        0.2251616356        0.7925508888
Li            0.3765698809        0.9350656685        0.8741206735
Li            0.0649343315        0.4415042223        0.8741206735
Li            0.7748383644        0.0432369479        0.7925508888
Li            0.5584957777        0.6234301191        0.8741206735
Li            0.6234301191        0.0649343315        0.1258793265
Li            0.9350656685        0.5584957777        0.1258793265
Li            0.0432369479        0.2683985835        0.2074491112
Li            0.7316014165        0.7748383644        0.2074491112
Li            0.4415042223        0.3765698809        0.1258793265
Li            0.2251616356        0.9567630521        0.2074491112
H             0.6436787503        0.1497796289        0.4454883000
H             0.3563212497        0.8502203711        0.5545117000
H             0.8042605915        0.8306299499        0.4001388174
H             0.1693700501        0.9736306516        0.4001388174
H             0.0263693484        0.1957394085        0.4001388174
H             0.1957394085        0.1693700501        0.5998611826
H             0.8306299499        0.0263693484        0.5998611826
H             0.9736306516        0.8042605915        0.5998611826
H             0.1497796289        0.5061008786        0.5545117000
H             0.5061008786        0.3563212497        0.4454883000
H             0.8502203711        0.4938991214        0.4454883000
H             0.4938991214        0.6436787503        0.5545117000
H             0.3103454384        0.4831129085        0.7788195748
H             0.0229880396        0.1835537460        0.8878454626
H             0.4709267297        0.1639628063        0.7334737977
H             0.8360371937        0.3069639234        0.7334737977
H             0.6930360766        0.5290732703        0.7334737977
H             0.8624055248        0.5027029433        0.9331940421
H             0.4972970567        0.3597025915        0.9331940421
H             0.6402974085        0.1375944752        0.9331940421
H             0.8164462540        0.8394342836        0.8878454626
H             0.1727674801        0.6896545616        0.7788195748
H             0.5168870915        0.8272325199        0.7788195748
H             0.1605657164        0.9770119604        0.8878454626
H             0.9770119604        0.8164462540        0.1121545374
H             0.6896545616        0.5168870915        0.2211804252
H             0.1375944752        0.4972970567        0.0668059579
H             0.5027029433        0.6402974085        0.0668059579
H             0.3597025915        0.8624055248        0.0668059579
H             0.5290732703        0.8360371937        0.2665262023
H             0.1639628063        0.6930360766        0.2665262023
H             0.3069639234        0.4709267297        0.2665262023
H             0.4831129085        0.1727674801        0.2211804252
H             0.8394342836        0.0229880396        0.1121545374
H             0.1835537460        0.1605657164        0.1121545374
H             0.8272325199        0.3103454384        0.2211804252



     Writing config-only to output data dir ./LiAlH4.save/
     NEW-OLD atomic charge density approx. for the potential
     extrapolated charge  108.66058, renormalised to  108.00000

     total cpu time spent up to now is       43.1 secs

     Self-consistent Calculation

     iteration #  1     ecut=    70.00 Ry     beta= 0.70
     Davidson diagonalization with overlap
     ethr =  1.00E-06,  avg # of iterations =  3.1

     total cpu time spent up to now is       45.2 secs

     total energy              =    -540.73404838 Ry
     estimated scf accuracy    <       0.00022846 Ry

     iteration #  2     ecut=    70.00 Ry     beta= 0.70
     Davidson diagonalization with overlap
     ethr =  2.12E-07,  avg # of iterations =  5.0

     total cpu time spent up to now is       47.8 secs

     total energy              =    -540.73459455 Ry
     estimated scf accuracy    <       0.00006669 Ry

     iteration #  3     ecut=    70.00 Ry     beta= 0.70
     Davidson diagonalization with overlap
     ethr =  6.18E-08,  avg # of iterations =  1.2

     total cpu time spent up to now is       49.2 secs

     total energy              =    -540.73458958 Ry
     estimated scf accuracy    <       0.00001734 Ry

     iteration #  4     ecut=    70.00 Ry     beta= 0.70
     Davidson diagonalization with overlap
     ethr =  1.61E-08,  avg # of iterations =  2.0

     total cpu time spent up to now is       50.9 secs

     total energy              =    -540.73459189 Ry
     estimated scf accuracy    <       0.00000035 Ry

     iteration #  5     ecut=    70.00 Ry     beta= 0.70
     Davidson diagonalization with overlap
     ethr =  3.28E-10,  avg # of iterations =  5.0

     total cpu time spent up to now is       53.3 secs

     total energy              =    -540.73459213 Ry
     estimated scf accuracy    <       0.00000014 Ry

     iteration #  6     ecut=    70.00 Ry     beta= 0.70
     Davidson diagonalization with overlap
     ethr =  1.26E-10,  avg # of iterations =  2.0

     total cpu time spent up to now is       54.9 secs

     total energy              =    -540.73459214 Ry
     estimated scf accuracy    <          8.6E-09 Ry

     iteration #  7     ecut=    70.00 Ry     beta= 0.70
     Davidson diagonalization with overlap
     ethr =  7.93E-12,  avg # of iterations =  5.0

     total cpu time spent up to now is       57.3 secs

     total energy              =    -540.73459214 Ry
     estimated scf accuracy    <       0.00000001 Ry

     iteration #  8     ecut=    70.00 Ry     beta= 0.70
     Davidson diagonalization with overlap
     ethr =  7.93E-12,  avg # of iterations =  2.1

     total cpu time spent up to now is       59.0 secs

     total energy              =    -540.73459215 Ry
     estimated scf accuracy    <          9.0E-10 Ry

     iteration #  9     ecut=    70.00 Ry     beta= 0.70
     Davidson diagonalization with overlap
     ethr =  8.29E-13,  avg # of iterations =  2.0

     total cpu time spent up to now is       60.5 secs

     End of self-consistent calculation

          k = 0.0000 0.0000 0.0000 ( 34217 PWs)   bands (ev):

   -43.6899 -43.6846 -43.6846 -43.6811 -43.6811 -43.6810 -43.6810 -43.6795
   -43.6795 -43.6751 -43.6751 -43.6750 -43.6750 -43.6749 -43.6749 -43.6725
   -43.6725 -43.6702  -6.5826  -5.7347  -5.7347  -5.4797  -5.4797  -5.0627
    -3.2585  -3.2585  -3.2585  -3.2585  -3.0899  -3.0899  -2.6200  -2.6200
    -2.5657  -2.4838  -2.4838  -2.4838  -2.4838  -1.8074  -1.8074  -1.5971
    -1.5971  -1.2318  -1.2318  -1.0759  -0.3758  -0.3758   0.2822   0.2822
     0.2822   0.2822   0.5153   0.5153   0.5153   0.5153   4.5068   4.7048
     4.7048   5.5730   5.5730   5.5755   5.7085   5.7085   5.7085   5.7087
     5.9626

          k =-0.0000 0.0000 0.2813 ( 34265 PWs)   bands (ev):

   -43.6892 -43.6872 -43.6825 -43.6813 -43.6813 -43.6805 -43.6805 -43.6798
   -43.6798 -43.6751 -43.6751 -43.6749 -43.6749 -43.6748 -43.6748 -43.6737
   -43.6712 -43.6704  -6.4679  -6.1487  -5.5121  -5.4125  -5.3823  -5.1814
    -3.1827  -3.1827  -3.1393  -3.1367  -3.1367  -2.9027  -2.9027  -2.8486
    -2.8486  -2.6283  -2.4699  -2.4490  -1.9881  -1.9881  -1.5694  -1.5694
    -1.5207  -1.3173  -1.0757  -1.0757  -0.3849  -0.3849  -0.2205  -0.2205
     0.1181   0.1181   0.6813   0.6813   0.8027   0.8027   4.6144   4.7350
     5.2240   5.2240   5.2589   5.2757   5.2757   5.3167   5.8822   6.2396
     6.5216

          k =-0.0000 0.3833-0.0000 ( 34359 PWs)   bands (ev):

   -43.6883 -43.6845 -43.6842 -43.6835 -43.6824 -43.6810 -43.6804 -43.6799
   -43.6797 -43.6764 -43.6756 -43.6748 -43.6741 -43.6736 -43.6735 -43.6723
   -43.6721 -43.6710  -6.3697  -5.8352  -5.6866  -5.5991  -5.5955  -5.2832
    -3.6575  -3.4922  -3.2322  -3.1003  -2.9844  -2.7742  -2.7372  -2.5070
    -2.3951  -2.3043  -2.2864  -1.9731  -1.9466  -1.9421  -1.7303  -1.6962
    -1.6242  -1.4779  -1.1150  -0.5897  -0.5778  -0.3911  -0.2450  -0.2068
    -0.1060  -0.0214   0.2833   0.4404   0.4642   0.7685   4.7607   4.7906
     4.9042   4.9304   5.1595   5.2958   5.3307   5.6711   5.6821   5.9382
     6.1101

          k =-0.0000 0.3833 0.2813 ( 34321 PWs)   bands (ev):

   -43.6876 -43.6859 -43.6839 -43.6835 -43.6823 -43.6817 -43.6808 -43.6790
   -43.6779 -43.6767 -43.6763 -43.6762 -43.6737 -43.6733 -43.6730 -43.6726
   -43.6717 -43.6713  -6.2628  -5.9637  -5.7192  -5.6371  -5.5399  -5.3469
    -3.5568  -3.4051  -3.2117  -3.0228  -2.8054  -2.7736  -2.6339  -2.4977
    -2.4155  -2.2759  -2.2716  -2.1837  -2.0766  -2.0302  -1.9417  -1.8211
    -1.5410  -1.4103  -0.9298  -0.7897  -0.6890  -0.4391  -0.3920  -0.1339
     0.0582   0.0808   0.2432   0.2899   0.6095   0.8305   4.8127   4.8212
     4.9625   4.9674   5.2438   5.5036   5.5468   5.5934   5.7758   5.8815
     5.9923

          k = 0.3319 0.5749-0.0000 ( 34368 PWs)   bands (ev):

   -43.6857 -43.6857 -43.6857 -43.6820 -43.6820 -43.6820 -43.6808 -43.6808
   -43.6808 -43.6752 -43.6752 -43.6751 -43.6736 -43.6736 -43.6736 -43.6718
   -43.6718 -43.6718  -5.9961  -5.9961  -5.9961  -5.5130  -5.5130  -5.5130
    -3.4344  -3.4344  -3.4344  -3.1045  -3.1045  -3.1045  -2.4086  -2.4086
    -2.4086  -2.0799  -2.0799  -2.0799  -1.7598  -1.7598  -1.7598  -1.4670
    -1.4670  -1.4670  -0.9417  -0.9417  -0.9416  -0.5061  -0.5061  -0.5061
     0.2837   0.2837   0.2837   0.3288   0.3288   0.3288   4.8176   4.8177
     4.8177   4.9941   4.9942   4.9942   5.4563   5.4563   5.4563   5.7115
     5.7115

          k = 0.3319 0.5749 0.2813 ( 34344 PWs)   bands (ev):

   -43.6851 -43.6851 -43.6850 -43.6838 -43.6838 -43.6838 -43.6790 -43.6790
   -43.6790 -43.6764 -43.6763 -43.6763 -43.6727 -43.6727 -43.6727 -43.6722
   -43.6722 -43.6722  -5.9021  -5.9020  -5.9020  -5.6625  -5.6625  -5.6625
    -3.1807  -3.1807  -3.1807  -3.0963  -3.0963  -3.0963  -2.4404  -2.4404
    -2.4404  -2.1284  -2.1284  -2.1284  -1.9915  -1.9915  -1.9915  -1.5842
    -1.5842  -1.5842  -0.7917  -0.7917  -0.7916  -0.2954  -0.2954  -0.2954
    -0.0420  -0.0420  -0.0420   0.4936   0.4936   0.4936   4.5978   4.5978
     4.5978   5.3118   5.3119   5.3119   5.7088   5.7088   5.7089   6.0572
     6.0573

          k = 0.0000-0.3833 0.2813 ( 34321 PWs)   bands (ev):

   -43.6876 -43.6859 -43.6840 -43.6827 -43.6827 -43.6822 -43.6806 -43.6783
   -43.6783 -43.6775 -43.6760 -43.6758 -43.6737 -43.6734 -43.6730 -43.6728
   -43.6717 -43.6712  -6.2592  -5.9754  -5.7645  -5.5307  -5.4807  -5.4676
    -3.5383  -3.2565  -3.1991  -3.0442  -3.0408  -2.9040  -2.5032  -2.4995
    -2.4169  -2.2637  -2.2566  -2.1666  -2.0658  -2.0509  -1.9312  -1.6163
    -1.5032  -1.2481  -1.2317  -0.9848  -0.8299  -0.4950  -0.1673  -0.0033
     0.1044   0.1047   0.1446   0.5478   0.5494   0.6380   4.5612   5.0299
     5.0556   5.0904   5.2250   5.2579   5.4513   5.6857   5.8735   5.9652
     6.0433

          k =-0.3319-0.5749 0.2813 ( 34344 PWs)   bands (ev):

   -43.6853 -43.6853 -43.6853 -43.6833 -43.6833 -43.6833 -43.6796 -43.6796
   -43.6796 -43.6758 -43.6758 -43.6758 -43.6730 -43.6730 -43.6730 -43.6721
   -43.6721 -43.6721  -5.9051  -5.9051  -5.9051  -5.6580  -5.6580  -5.6580
    -3.2210  -3.2210  -3.2210  -3.0219  -3.0219  -3.0219  -2.5933  -2.5933
    -2.5933  -2.0898  -2.0898  -2.0898  -1.9234  -1.9234  -1.9234  -1.4199
    -1.4199  -1.4199  -0.8137  -0.8137  -0.8137  -0.6303  -0.6303  -0.6303
     0.1269   0.1269   0.1269   0.5229   0.5229   0.5229   4.7983   4.7983
     4.7984   5.2484   5.2485   5.2485   5.6470   5.6470   5.6470   5.9312
     5.9312

     the Fermi energy is     3.9787 ev

!    total energy              =    -540.73459215 Ry
     estimated scf accuracy    <          5.7E-12 Ry
     smearing contrib. (-TS)   =      -0.00000000 Ry
     internal energy E=F+TS    =    -540.73459215 Ry

     The total energy is F=E-TS. E is the sum of the following terms:
     one-electron contribution =    -141.78069062 Ry
     hartree contribution      =      71.07981974 Ry
     xc contribution           =    -103.52535115 Ry
     ewald contribution        =    -158.47748673 Ry
     one-center paw contrib.   =    -208.03088338 Ry

     convergence has been achieved in   9 iterations

     Forces acting on atoms (cartesian axes, Ry/au):

     atom    1 type  1   force =     0.00000000    0.00000000   -0.00000000
     atom    2 type  1   force =     0.00000000   -0.00000000   -0.00000000
     atom    3 type  1   force =     0.00000000   -0.00000000   -0.00000288
     atom    4 type  1   force =     0.00000000   -0.00000000   -0.00000092
     atom    5 type  1   force =     0.00000000   -0.00000000    0.00000288
     atom    6 type  1   force =    -0.00000000    0.00000000    0.00000092
     atom    7 type  2   force =    -0.00030694   -0.00016591   -0.00009680
     atom    8 type  2   force =     0.00029715   -0.00018286   -0.00009680
     atom    9 type  2   force =     0.00030694    0.00016591    0.00009680
     atom   10 type  2   force =    -0.00029715    0.00018286    0.00009680
     atom   11 type  2   force =     0.00000979    0.00034877   -0.00009680
     atom   12 type  2   force =    -0.00000979   -0.00034877    0.00009680
     atom   13 type  2   force =    -0.00030831   -0.00016703   -0.00012090
     atom   14 type  2   force =     0.00029881   -0.00018349   -0.00012090
     atom   15 type  2   force =     0.00030463    0.00016887    0.00014949
     atom   16 type  2   force =    -0.00029856    0.00017938    0.00014949
     atom   17 type  2   force =     0.00000950    0.00035052   -0.00012090
     atom   18 type  2   force =    -0.00000607   -0.00034826    0.00014949
     atom   19 type  2   force =    -0.00030463   -0.00016887   -0.00014949
     atom   20 type  2   force =     0.00029856   -0.00017938   -0.00014949
     atom   21 type  2   force =     0.00030831    0.00016703    0.00012090
     atom   22 type  2   force =    -0.00029881    0.00018349    0.00012090
     atom   23 type  2   force =     0.00000607    0.00034826   -0.00014949
     atom   24 type  2   force =    -0.00000950   -0.00035052    0.00012090
     atom   25 type  3   force =     0.00039803   -0.00049574    0.00051666
     atom   26 type  3   force =    -0.00039803    0.00049574   -0.00051666
     atom   27 type  3   force =    -0.00045576   -0.00035909   -0.00046974
     atom   28 type  3   force =     0.00053886   -0.00021515   -0.00046974
     atom   29 type  3   force =    -0.00008310    0.00057424   -0.00046974
     atom   30 type  3   force =     0.00045576    0.00035909    0.00046974
     atom   31 type  3   force =    -0.00053886    0.00021515    0.00046974
     atom   32 type  3   force =     0.00008310   -0.00057424    0.00046974
     atom   33 type  3   force =    -0.00023031   -0.00059257   -0.00051666
     atom   34 type  3   force =    -0.00062834   -0.00009683    0.00051666
     atom   35 type  3   force =     0.00023031    0.00059257    0.00051666
     atom   36 type  3   force =     0.00062834    0.00009683   -0.00051666
     atom   37 type  3   force =     0.00039931   -0.00049683    0.00050449
     atom   38 type  3   force =    -0.00039756    0.00049586   -0.00051210
     atom   39 type  3   force =    -0.00045755   -0.00036159   -0.00046076
     atom   40 type  3   force =     0.00054192   -0.00021545   -0.00046076
     atom   41 type  3   force =    -0.00008438    0.00057704   -0.00046076
     atom   42 type  3   force =     0.00045438    0.00035756    0.00046908
     atom   43 type  3   force =    -0.00053685    0.00021472    0.00046908
     atom   44 type  3   force =     0.00008247   -0.00057228    0.00046908
     atom   45 type  3   force =    -0.00023065   -0.00059223   -0.00051210
     atom   46 type  3   force =    -0.00062992   -0.00009740    0.00050449
     atom   47 type  3   force =     0.00023061    0.00059422    0.00050449
     atom   48 type  3   force =     0.00062821    0.00009637   -0.00051210
     atom   49 type  3   force =     0.00039756   -0.00049586    0.00051210
     atom   50 type  3   force =    -0.00039931    0.00049683   -0.00050449
     atom   51 type  3   force =    -0.00045438   -0.00035756   -0.00046908
     atom   52 type  3   force =     0.00053685   -0.00021472   -0.00046908
     atom   53 type  3   force =    -0.00008247    0.00057228   -0.00046908
     atom   54 type  3   force =     0.00045755    0.00036159    0.00046076
     atom   55 type  3   force =    -0.00054192    0.00021545    0.00046076
     atom   56 type  3   force =     0.00008438   -0.00057704    0.00046076
     atom   57 type  3   force =    -0.00023061   -0.00059422   -0.00050449
     atom   58 type  3   force =    -0.00062821   -0.00009637    0.00051210
     atom   59 type  3   force =     0.00023065    0.00059223    0.00051210
     atom   60 type  3   force =     0.00062992    0.00009740   -0.00050449

     Total force =     0.004944     Total SCF correction =     0.000002


     Computing stress (Cartesian axis) and pressure

          total   stress  (Ry/bohr**3)                   (kbar)     P=        4.08
   0.00002765  -0.00000000  -0.00000000            4.07       -0.00       -0.00
   0.00000000   0.00002765   0.00000000            0.00        4.07        0.00
   0.00000000  -0.00000000   0.00002787            0.00       -0.00        4.10

     Energy error            =      1.2E-03 Ry
     Gradient error          =      6.3E-04 Ry/Bohr
     Cell gradient error     =      4.1E+00 kbar

     number of scf cycles    =   3
     number of bfgs steps    =   2

     enthalpy           old  =    -540.7334196267 Ry
     enthalpy           new  =    -540.7345921454 Ry

     CASE: enthalpy          _new < enthalpy          _old

     new trust radius        =       0.0251758981 bohr
     new conv_thr            =            1.0E-10 Ry

     new unit-cell volume =   3539.80070 a.u.^3 (   524.54434 Ang^3 )
     density =      1.02432 g/cm^3

CELL_PARAMETERS (alat= 15.03439649)
   1.006408140   0.000000000  -0.000000000
  -0.503204070   0.871575016  -0.000000000
  -0.000000000   0.000000000   1.187522644

ATOMIC_POSITIONS (crystal)
Al            0.0000000000        0.0000000000        0.5000000000
Al            0.0000000000        0.0000000000       -0.0000000000
Al            0.6666666667        0.3333333333        0.8333330866
Al            0.6666666667        0.3333333333        0.3333332096
Al            0.3333333333        0.6666666667        0.1666669134
Al            0.3333333333        0.6666666667        0.6666667904
Li            0.2900330960        0.3982362150        0.4592050859
Li            0.6017637850        0.8917968910        0.4592050859
Li            0.7099669040        0.6017637850        0.5407949141
Li            0.3982362150        0.1082031090        0.5407949141
Li            0.1082031090        0.7099669040        0.4592050859
Li            0.8917968910        0.2900330960        0.5407949141
Li            0.9566990604        0.7315689748        0.7925304868
Li            0.2684310252        0.2251300856        0.7925304868
Li            0.3766334508        0.9350984751        0.8741451909
Li            0.0649015249        0.4415349857        0.8741451909
Li            0.7748699144        0.0433009396        0.7925304868
Li            0.5584650143        0.6233665492        0.8741451909
Li            0.6233665492        0.0649015249        0.1258548091
Li            0.9350984751        0.5584650143        0.1258548091
Li            0.0433009396        0.2684310252        0.2074695132
Li            0.7315689748        0.7748699144        0.2074695132
Li            0.4415349857        0.3766334508        0.1258548091
Li            0.2251300856        0.9566990604        0.2074695132
H             0.6436892275        0.1496303373        0.4455901987
H             0.3563107725        0.8503696627        0.5544098013
H             0.8040991410        0.8305145983        0.4000423413
H             0.1694854017        0.9735845527        0.4000423413
H             0.0264154473        0.1959008590        0.4000423413
H             0.1959008590        0.1694854017        0.5999576587
H             0.8305145983        0.0264154473        0.5999576587
H             0.9735845527        0.8040991410        0.5999576587
H             0.1496303373        0.5059411098        0.5544098013
H             0.5059411098        0.3563107725        0.4455901987
H             0.8503696627        0.4940588902        0.4455901987
H             0.4940588902        0.6436892275        0.5544098013
H             0.3103560087        0.4829634376        0.7789197262
H             0.0229776537        0.1837030620        0.8877441647
H             0.4707647556        0.1638469863        0.7333786422
H             0.8361530137        0.3069177693        0.7333786422
H             0.6930822307        0.5292352444        0.7333786422
H             0.8625665743        0.5028179767        0.9332903621
H             0.4971820233        0.3597486076        0.9332903621
H             0.6402513924        0.1374334257        0.9332903621
H             0.8162969380        0.8392745818        0.8877441647
H             0.1726074389        0.6896439913        0.7789197262
H             0.5170365624        0.8273925611        0.7789197262
H             0.1607254182        0.9770223463        0.8877441647
H             0.9770223463        0.8162969380        0.1122558353
H             0.6896439913        0.5170365624        0.2210802738
H             0.1374334257        0.4971820233        0.0667096379
H             0.5028179767        0.6402513924        0.0667096379
H             0.3597486076        0.8625665743        0.0667096379
H             0.5292352444        0.8361530137        0.2666213578
H             0.1638469863        0.6930822307        0.2666213578
H             0.3069177693        0.4707647556        0.2666213578
H             0.4829634376        0.1726074389        0.2210802738
H             0.8392745818        0.0229776537        0.1122558353
H             0.1837030620        0.1607254182        0.1122558353
H             0.8273925611        0.3103560087        0.2210802738



     Writing config-only to output data dir ./LiAlH4.save/
     NEW-OLD atomic charge density approx. for the potential
     extrapolated charge  108.63204, renormalised to  108.00000

     total cpu time spent up to now is       62.9 secs

     Self-consistent Calculation

     iteration #  1     ecut=    70.00 Ry     beta= 0.70
     Davidson diagonalization with overlap
     ethr =  1.00E-06,  avg # of iterations =  4.0

     total cpu time spent up to now is       65.1 secs

     total energy              =    -540.73447859 Ry
     estimated scf accuracy    <       0.00019046 Ry

     iteration #  2     ecut=    70.00 Ry     beta= 0.70
     Davidson diagonalization with overlap
     ethr =  1.76E-07,  avg # of iterations =  5.0

     total cpu time spent up to now is       67.7 secs

     total energy              =    -540.73496242 Ry
     estimated scf accuracy    <       0.00005978 Ry

     iteration #  3     ecut=    70.00 Ry     beta= 0.70
     Davidson diagonalization with overlap
     ethr =  5.54E-08,  avg # of iterations =  1.1

     total cpu time spent up to now is       69.1 secs

     total energy              =    -540.73495759 Ry
     estimated scf accuracy    <       0.00001617 Ry

     iteration #  4     ecut=    70.00 Ry     beta= 0.70
     Davidson diagonalization with overlap
     ethr =  1.50E-08,  avg # of iterations =  2.0

     total cpu time spent up to now is       70.7 secs

     total energy              =    -540.73495956 Ry
     estimated scf accuracy    <       0.00000036 Ry

     iteration #  5     ecut=    70.00 Ry     beta= 0.70
     Davidson diagonalization with overlap
     ethr =  3.34E-10,  avg # of iterations =  5.1

     total cpu time spent up to now is       73.2 secs

     total energy              =    -540.73495985 Ry
     estimated scf accuracy    <       0.00000019 Ry

     iteration #  6     ecut=    70.00 Ry     beta= 0.70
     Davidson diagonalization with overlap
     ethr =  1.72E-10,  avg # of iterations =  2.0

     total cpu time spent up to now is       74.8 secs

     total energy              =    -540.73495986 Ry
     estimated scf accuracy    <          5.0E-09 Ry

     iteration #  7     ecut=    70.00 Ry     beta= 0.70
     Davidson diagonalization with overlap
     ethr =  4.63E-12,  avg # of iterations =  6.0

     total cpu time spent up to now is       77.5 secs

     total energy              =    -540.73495986 Ry
     estimated scf accuracy    <          8.4E-09 Ry

     iteration #  8     ecut=    70.00 Ry     beta= 0.70
     Davidson diagonalization with overlap
     ethr =  4.63E-12,  avg # of iterations =  2.5

     total cpu time spent up to now is       79.3 secs

     total energy              =    -540.73495986 Ry
     estimated scf accuracy    <          1.0E-09 Ry

     iteration #  9     ecut=    70.00 Ry     beta= 0.70
     Davidson diagonalization with overlap
     ethr =  9.24E-13,  avg # of iterations =  2.1

     total cpu time spent up to now is       80.9 secs

     End of self-consistent calculation

          k = 0.0000 0.0000 0.0000 ( 34217 PWs)   bands (ev):

   -43.7302 -43.7250 -43.7250 -43.7216 -43.7216 -43.7215 -43.7215 -43.7200
   -43.7200 -43.7157 -43.7157 -43.7156 -43.7156 -43.7156 -43.7156 -43.7132
   -43.7132 -43.7109  -6.5846  -5.7399  -5.7399  -5.4859  -5.4858  -5.0720
    -3.2724  -3.2724  -3.2724  -3.2724  -3.1042  -3.1041  -2.6344  -2.6344
    -2.5793  -2.5007  -2.5007  -2.5007  -2.5007  -1.8276  -1.8276  -1.6212
    -1.6212  -1.2530  -1.2530  -1.0998  -0.4042  -0.4042   0.2515   0.2515
     0.2515   0.2515   0.4836   0.4836   0.4836   0.4836   4.4418   4.6642
     4.6643   5.5379   5.5379   5.5420   5.6708   5.6708   5.6709   5.6709
     5.9166

          k = 0.0000 0.0000 0.2807 ( 34265 PWs)   bands (ev):

   -43.7295 -43.7275 -43.7230 -43.7219 -43.7219 -43.7210 -43.7210 -43.7203
   -43.7203 -43.7157 -43.7157 -43.7156 -43.7156 -43.7155 -43.7155 -43.7144
   -43.7120 -43.7112  -6.4704  -6.1524  -5.5175  -5.4194  -5.3891  -5.1897
    -3.1973  -3.1973  -3.1537  -3.1508  -3.1508  -2.9178  -2.9178  -2.8631
    -2.8631  -2.6443  -2.4870  -2.4640  -2.0071  -2.0071  -1.5905  -1.5905
    -1.5417  -1.3397  -1.1002  -1.1002  -0.4128  -0.4128  -0.2491  -0.2491
     0.0884   0.0884   0.6489   0.6489   0.7693   0.7693   4.5728   4.6709
     5.1889   5.1889   5.1970   5.2408   5.2408   5.2732   5.8369   6.1993
     6.4718

          k =-0.0000 0.3824-0.0000 ( 34359 PWs)   bands (ev):

   -43.7286 -43.7249 -43.7246 -43.7239 -43.7229 -43.7215 -43.7209 -43.7204
   -43.7203 -43.7170 -43.7162 -43.7155 -43.7147 -43.7143 -43.7142 -43.7130
   -43.7128 -43.7118  -6.3725  -5.8397  -5.6916  -5.6053  -5.6016  -5.2911
    -3.6701  -3.5053  -3.2465  -3.1145  -2.9987  -2.7901  -2.7522  -2.5230
    -2.4116  -2.3208  -2.3035  -1.9915  -1.9652  -1.9608  -1.7497  -1.7172
    -1.6456  -1.4999  -1.1403  -0.6156  -0.6038  -0.4185  -0.2745  -0.2363
    -0.1354  -0.0508   0.2523   0.4090   0.4323   0.7359   4.7208   4.7511
     4.8600   4.8773   5.1163   5.2512   5.2883   5.6264   5.6394   5.8895
     6.0603

          k =-0.0000 0.3824 0.2807 ( 34321 PWs)   bands (ev):

   -43.7279 -43.7263 -43.7244 -43.7239 -43.7227 -43.7222 -43.7213 -43.7196
   -43.7185 -43.7173 -43.7169 -43.7169 -43.7144 -43.7140 -43.7137 -43.7133
   -43.7124 -43.7120  -6.2660  -5.9680  -5.7246  -5.6422  -5.5462  -5.3542
    -3.5698  -3.4189  -3.2255  -3.0381  -2.8213  -2.7890  -2.6495  -2.5138
    -2.4324  -2.2931  -2.2892  -2.2007  -2.0957  -2.0472  -1.9612  -1.8401
    -1.5620  -1.4320  -0.9551  -0.8156  -0.7156  -0.4674  -0.4197  -0.1620
     0.0279   0.0502   0.2127   0.2594   0.5771   0.7975   4.7739   4.7757
     4.9118   4.9271   5.2009   5.4584   5.4957   5.5506   5.7357   5.8313
     5.9446

          k = 0.3312 0.5737-0.0000 ( 34368 PWs)   bands (ev):

   -43.7261 -43.7261 -43.7261 -43.7225 -43.7225 -43.7225 -43.7213 -43.7213
   -43.7213 -43.7158 -43.7158 -43.7158 -43.7143 -43.7143 -43.7143 -43.7126
   -43.7126 -43.7126  -6.0001  -6.0001  -6.0001  -5.5195  -5.5195  -5.5195
    -3.4476  -3.4476  -3.4476  -3.1192  -3.1192  -3.1192  -2.4247  -2.4247
    -2.4247  -2.0982  -2.0981  -2.0981  -1.7781  -1.7781  -1.7781  -1.4891
    -1.4890  -1.4890  -0.9670  -0.9670  -0.9669  -0.5342  -0.5342  -0.5342
     0.2528   0.2528   0.2528   0.2980   0.2980   0.2980   4.7771   4.7771
     4.7772   4.9484   4.9485   4.9485   5.4141   5.4141   5.4142   5.6636
     5.6636

          k = 0.3312 0.5737 0.2807 ( 34344 PWs)   bands (ev):

   -43.7255 -43.7255 -43.7254 -43.7243 -43.7243 -43.7243 -43.7195 -43.7195
   -43.7195 -43.7170 -43.7170 -43.7170 -43.7134 -43.7134 -43.7134 -43.7129
   -43.7129 -43.7129  -5.9065  -5.9064  -5.9064  -5.6683  -5.6683  -5.6683
    -3.1955  -3.1954  -3.1954  -3.1111  -3.1111  -3.1111  -2.4561  -2.4560
    -2.4560  -2.1469  -2.1468  -2.1468  -2.0094  -2.0094  -2.0094  -1.6051
    -1.6051  -1.6051  -0.8175  -0.8175  -0.8174  -0.3243  -0.3243  -0.3242
    -0.0713  -0.0713  -0.0713   0.4620   0.4620   0.4620   4.5534   4.5534
     4.5535   5.2735   5.2736   5.2736   5.6635   5.6635   5.6636   6.0047
     6.0048

          k = 0.0000-0.3824 0.2807 ( 34321 PWs)   bands (ev):

   -43.7280 -43.7263 -43.7244 -43.7232 -43.7231 -43.7227 -43.7212 -43.7189
   -43.7188 -43.7181 -43.7166 -43.7164 -43.7144 -43.7140 -43.7137 -43.7135
   -43.7124 -43.7119  -6.2624  -5.9798  -5.7693  -5.5368  -5.4873  -5.4741
    -3.5512  -3.2706  -3.2142  -3.0579  -3.0560  -2.9200  -2.5190  -2.5162
    -2.4323  -2.2812  -2.2738  -2.1840  -2.0840  -2.0699  -1.9494  -1.6354
    -1.5244  -1.2703  -1.2569  -1.0099  -0.8556  -0.5236  -0.1967  -0.0325
     0.0742   0.0746   0.1146   0.5162   0.5175   0.6056   4.5222   4.9740
     5.0117   5.0467   5.1802   5.2218   5.4066   5.6468   5.8186   5.9168
     5.9965

          k =-0.3312-0.5737 0.2807 ( 34344 PWs)   bands (ev):

   -43.7257 -43.7257 -43.7257 -43.7237 -43.7237 -43.7237 -43.7202 -43.7202
   -43.7202 -43.7164 -43.7164 -43.7164 -43.7137 -43.7137 -43.7137 -43.7128
   -43.7128 -43.7128  -5.9095  -5.9095  -5.9095  -5.6638  -5.6638  -5.6638
    -3.2355  -3.2355  -3.2355  -3.0371  -3.0371  -3.0370  -2.6088  -2.6088
    -2.6088  -2.1083  -2.1083  -2.1083  -1.9412  -1.9412  -1.9412  -1.4410
    -1.4410  -1.4410  -0.8398  -0.8398  -0.8398  -0.6575  -0.6575  -0.6574
     0.0966   0.0966   0.0966   0.4910   0.4910   0.4910   4.7515   4.7515
     4.7515   5.2124   5.2124   5.2124   5.5952   5.5952   5.5953   5.8883
     5.8883

     the Fermi energy is     3.9295 ev

!    total energy              =    -540.73495986 Ry
     estimated scf accuracy    <          1.6E-11 Ry
     smearing contrib. (-TS)   =      -0.00000000 Ry
     internal energy E=F+TS    =    -540.73495986 Ry

     The total energy is F=E-TS. E is the sum of the following terms:
     one-electron contribution =    -142.27375928 Ry
     hartree contribution      =      71.17155649 Ry
     xc contribution           =    -103.45124046 Ry
     ewald contribution        =    -158.15687920 Ry
     one-center paw contrib.   =    -208.02463741 Ry

     convergence has been achieved in   9 iterations

     Forces acting on atoms (cartesian axes, Ry/au):

     atom    1 type  1   force =     0.00000000    0.00000000   -0.00000000
     atom    2 type  1   force =     0.00000000    0.00000000   -0.00000000
     atom    3 type  1   force =    -0.00000000   -0.00000000   -0.00000494
     atom    4 type  1   force =    -0.00000000   -0.00000000   -0.00000134
     atom    5 type  1   force =     0.00000000   -0.00000000    0.00000494
     atom    6 type  1   force =     0.00000000   -0.00000000    0.00000134
     atom    7 type  2   force =    -0.00035378   -0.00014296   -0.00001330
     atom    8 type  2   force =     0.00030070   -0.00023490   -0.00001330
     atom    9 type  2   force =     0.00035378    0.00014296    0.00001330
     atom   10 type  2   force =    -0.00030070    0.00023490    0.00001330
     atom   11 type  2   force =     0.00005308    0.00037786   -0.00001330
     atom   12 type  2   force =    -0.00005308   -0.00037786    0.00001330
     atom   13 type  2   force =    -0.00035540   -0.00014397   -0.00003218
     atom   14 type  2   force =     0.00030238   -0.00023580   -0.00003218
     atom   15 type  2   force =     0.00035177    0.00014508    0.00005589
     atom   16 type  2   force =    -0.00030153    0.00023211    0.00005589
     atom   17 type  2   force =     0.00005302    0.00037977   -0.00003218
     atom   18 type  2   force =    -0.00005025   -0.00037718    0.00005589
     atom   19 type  2   force =    -0.00035177   -0.00014508   -0.00005589
     atom   20 type  2   force =     0.00030153   -0.00023211   -0.00005589
     atom   21 type  2   force =     0.00035540    0.00014397    0.00003218
     atom   22 type  2   force =    -0.00030238    0.00023580    0.00003218
     atom   23 type  2   force =     0.00005025    0.00037718   -0.00005589
     atom   24 type  2   force =    -0.00005302   -0.00037977    0.00003218
     atom   25 type  3   force =    -0.00001326    0.00049922   -0.00024184
     atom   26 type  3   force =     0.00001326   -0.00049922    0.00024184
     atom   27 type  3   force =     0.00014443    0.00050849    0.00030078
     atom   28 type  3   force =    -0.00051258   -0.00012916    0.00030078
     atom   29 type  3   force =     0.00036815   -0.00037933    0.00030078
     atom   30 type  3   force =    -0.00014443   -0.00050849   -0.00030078
     atom   31 type  3   force =     0.00051258    0.00012916   -0.00030078
     atom   32 type  3   force =    -0.00036815    0.00037933   -0.00030078
     atom   33 type  3   force =     0.00042570    0.00026110    0.00024184
     atom   34 type  3   force =     0.00043897   -0.00023812   -0.00024184
[...]
        35           H   tau(  35) = (   0.6072955   0.4306801   0.5292591  )
        36           H   tau(  36) = (   0.1733287   0.5611462   0.6585348  )
        37           H   tau(  37) = (   0.0693326   0.4210455   0.9251851  )
        38           H   tau(  38) = (  -0.0693320   0.1601138   1.0544677  )
        39           H   tau(  39) = (   0.3914110   0.1428613   0.8711178  )
        40           H   tau(  40) = (   0.6871710   0.2675412   0.8711178  )
        41           H   tau(  41) = (   0.4313150   0.4613369   0.8711178  )
        42           H   tau(  42) = (   0.6151856   0.4382965   1.1085421  )
        43           H   tau(  43) = (   0.3194293   0.3136181   1.1085421  )
        44           H   tau(  44) = (   0.5752821   0.1198248   1.1085421  )
        45           H   tau(  45) = (   0.3993023   0.7316393   1.0544677  )
        46           H   tau(  46) = (  -0.1733291   0.6011729   0.9251851  )
        47           H   tau(  47) = (   0.1039966   0.7212604   0.9251851  )
        48           H   tau(  48) = (  -0.3299704   0.8517258   1.0544677  )
        49           H   tau(  49) = (   0.5726310   0.7116256   0.1333262  )
        50           H   tau(  50) = (   0.4339665   0.4506939   0.2626088  )
        51           H   tau(  51) = (  -0.1118866   0.4334429   0.0792518  )
        52           H   tau(  52) = (   0.1838697   0.5581214   0.0792518  )
        53           H   tau(  53) = (  -0.0719831   0.7519146   0.0792518  )
        54           H   tau(  54) = (   0.1118880   0.7288781   0.3166761  )
        55           H   tau(  55) = (  -0.1838720   0.6041982   0.3166761  )
        56           H   tau(  56) = (   0.0719840   0.4104026   0.3166761  )
        57           H   tau(  57) = (   0.3993024   0.1504790   0.2626088  )
        58           H   tau(  58) = (   0.8332694   0.0200137   0.1333262  )
        59           H   tau(  59) = (   0.1039967   0.1401002   0.1333262  )
        60           H   tau(  60) = (   0.6766281   0.2705665   0.2626088  )

     number of k points=     8  Marzari-Vanderbilt smearing, width (Ry)=  0.0050
                       cart. coord. in units 2pi/alat
        k(    1) = (   0.0000000   0.0000000   0.0000000), wk =   0.0740741
        k(    2) = (  -0.0000000   0.0000000   0.2806323), wk =   0.1481481
        k(    3) = (  -0.0000000   0.3823772  -0.0000000), wk =   0.4444444
        k(    4) = (  -0.0000000   0.3823772   0.2806323), wk =   0.4444444
        k(    5) = (   0.3311484   0.5735659  -0.0000000), wk =   0.1481481
        k(    6) = (   0.3311484   0.5735659   0.2806323), wk =   0.1481481
        k(    7) = (   0.0000000  -0.3823772   0.2806323), wk =   0.4444444
        k(    8) = (  -0.3311484  -0.5735659   0.2806323), wk =   0.1481481

     Dense  grid:   169101 G-vectors     FFT dimensions: (  72,  72,  81)

     Estimated max dynamical RAM per process >      35.48 MB

     Estimated total dynamical RAM >       1.66 GB

     Initial potential from superposition of free atoms

     starting charge      99.8725, renormalised to     108.0000
     Starting wfcs are  150 randomized atomic wfcs
     Checking if some PAW data can be deallocated... 

     total cpu time spent up to now is      100.2 secs

     Self-consistent Calculation

     iteration #  1     ecut=    70.00 Ry     beta= 0.70
     Davidson diagonalization with overlap
     c_bands:  4 eigenvalues not converged
     ethr =  1.00E-06,  avg # of iterations = 33.8

     total cpu time spent up to now is      110.1 secs

     total energy              =    -540.51079955 Ry
     estimated scf accuracy    <       2.67722992 Ry

     iteration #  2     ecut=    70.00 Ry     beta= 0.70
     Davidson diagonalization with overlap
     ethr =  2.48E-03,  avg # of iterations =  1.0

     total cpu time spent up to now is      111.5 secs

     total energy              =    -540.66790197 Ry
     estimated scf accuracy    <       0.05503905 Ry

     iteration #  3     ecut=    70.00 Ry     beta= 0.70
     Davidson diagonalization with overlap
     ethr =  5.10E-05,  avg # of iterations =  6.4

     total cpu time spent up to now is      114.2 secs

     total energy              =    -540.73382961 Ry
     estimated scf accuracy    <       0.00686715 Ry

     iteration #  4     ecut=    70.00 Ry     beta= 0.70
     Davidson diagonalization with overlap
     ethr =  6.36E-06,  avg # of iterations =  5.9

     total cpu time spent up to now is      116.5 secs

     total energy              =    -540.73481259 Ry
     estimated scf accuracy    <       0.00054765 Ry

     iteration #  5     ecut=    70.00 Ry     beta= 0.70
     Davidson diagonalization with overlap
     ethr =  5.07E-07,  avg # of iterations =  5.6

     total cpu time spent up to now is      118.7 secs

     total energy              =    -540.73496637 Ry
     estimated scf accuracy    <       0.00000472 Ry

     iteration #  6     ecut=    70.00 Ry     beta= 0.70
     Davidson diagonalization with overlap
     ethr =  4.37E-09,  avg # of iterations =  6.5

     total cpu time spent up to now is      122.0 secs

     total energy              =    -540.73498285 Ry
     estimated scf accuracy    <       0.00000213 Ry

     iteration #  7     ecut=    70.00 Ry     beta= 0.70
     Davidson diagonalization with overlap
     ethr =  1.97E-09,  avg # of iterations =  2.1

     total cpu time spent up to now is      123.6 secs

     total energy              =    -540.73498308 Ry
     estimated scf accuracy    <       0.00000002 Ry

     iteration #  8     ecut=    70.00 Ry     beta= 0.70
     Davidson diagonalization with overlap
     ethr =  1.77E-11,  avg # of iterations =  6.9

     total cpu time spent up to now is      126.9 secs

     total energy              =    -540.73498313 Ry
     estimated scf accuracy    <       0.00000005 Ry

     iteration #  9     ecut=    70.00 Ry     beta= 0.70
     Davidson diagonalization with overlap
     ethr =  1.77E-11,  avg # of iterations =  2.0

     total cpu time spent up to now is      128.5 secs

     total energy              =    -540.73498312 Ry
     estimated scf accuracy    <       0.00000002 Ry

     iteration # 10     ecut=    70.00 Ry     beta= 0.70
     Davidson diagonalization with overlap
     ethr =  1.39E-11,  avg # of iterations =  2.0

     total cpu time spent up to now is      130.1 secs

     End of self-consistent calculation

          k = 0.0000 0.0000 0.0000 ( 35021 PWs)   bands (ev):

   -43.7346 -43.7294 -43.7294 -43.7260 -43.7260 -43.7260 -43.7260 -43.7245
   -43.7245 -43.7201 -43.7201 -43.7200 -43.7200 -43.7200 -43.7200 -43.7176
   -43.7176 -43.7154  -6.5855  -5.7415  -5.7414  -5.4878  -5.4878  -5.0743
    -3.2737  -3.2737  -3.2737  -3.2737  -3.1060  -3.1059  -2.6362  -2.6362
    -2.5814  -2.5023  -2.5023  -2.5023  -2.5023  -1.8302  -1.8302  -1.6226
    -1.6226  -1.2557  -1.2557  -1.1029  -0.4063  -0.4063   0.2485   0.2485
     0.2486   0.2486   0.4804   0.4804   0.4805   0.4805   4.4365   4.6604
     4.6605   5.5345   5.5345   5.5387   5.6675   5.6675   5.6676   5.6676
     5.9126

          k =-0.0000 0.0000 0.2806 ( 34968 PWs)   bands (ev):

   -43.7339 -43.7320 -43.7274 -43.7263 -43.7263 -43.7254 -43.7254 -43.7248
   -43.7248 -43.7202 -43.7202 -43.7200 -43.7200 -43.7199 -43.7199 -43.7188
   -43.7164 -43.7156  -6.4714  -6.1536  -5.5191  -5.4216  -5.3911  -5.1919
    -3.1986  -3.1986  -3.1554  -3.1521  -3.1521  -2.9191  -2.9191  -2.8646
    -2.8646  -2.6465  -2.4889  -2.4663  -2.0090  -2.0090  -1.5926  -1.5926
    -1.5446  -1.3427  -1.1022  -1.1022  -0.4152  -0.4152  -0.2515  -0.2515
     0.0855   0.0855   0.6458   0.6458   0.7659   0.7659   4.5693   4.6658
     5.1858   5.1858   5.1921   5.2376   5.2376   5.2697   5.8322   6.1956
     6.4679

          k =-0.0000 0.3824-0.0000 ( 35019 PWs)   bands (ev):

   -43.7330 -43.7293 -43.7290 -43.7283 -43.7273 -43.7259 -43.7254 -43.7249
   -43.7247 -43.7215 -43.7206 -43.7199 -43.7192 -43.7187 -43.7186 -43.7174
   -43.7172 -43.7162  -6.3735  -5.8411  -5.6931  -5.6071  -5.6036  -5.2931
    -3.6711  -3.5067  -3.2482  -3.1160  -3.0003  -2.7919  -2.7539  -2.5243
    -2.4136  -2.3232  -2.3053  -1.9934  -1.9673  -1.9630  -1.7518  -1.7197
    -1.6480  -1.5024  -1.1424  -0.6179  -0.6063  -0.4210  -0.2771  -0.2389
    -0.1378  -0.0535   0.2496   0.4058   0.4294   0.7326   4.7173   4.7473
     4.8564   4.8725   5.1122   5.2474   5.2847   5.6223   5.6355   5.8864
     6.0558

          k =-0.0000 0.3824 0.2806 ( 35040 PWs)   bands (ev):

   -43.7323 -43.7307 -43.7288 -43.7283 -43.7272 -43.7266 -43.7257 -43.7240
   -43.7229 -43.7217 -43.7214 -43.7213 -43.7188 -43.7184 -43.7182 -43.7177
   -43.7168 -43.7165  -6.2671  -5.9693  -5.7262  -5.6437  -5.5482  -5.3562
    -3.5709  -3.4204  -3.2268  -3.0398  -2.8232  -2.7909  -2.6513  -2.5157
    -2.4343  -2.2954  -2.2910  -2.2024  -2.0975  -2.0491  -1.9633  -1.8422
    -1.5646  -1.4344  -0.9571  -0.8179  -0.7177  -0.4698  -0.4223  -0.1647
     0.0250   0.0475   0.2099   0.2564   0.5740   0.7942   4.7706   4.7719
     4.9074   4.9236   5.1973   5.4549   5.4915   5.5463   5.7318   5.8268
     5.9403

          k = 0.3311 0.5736-0.0000 ( 35004 PWs)   bands (ev):

   -43.7305 -43.7305 -43.7305 -43.7269 -43.7269 -43.7269 -43.7257 -43.7257
   -43.7257 -43.7202 -43.7202 -43.7202 -43.7187 -43.7187 -43.7187 -43.7170
   -43.7170 -43.7170  -6.0014  -6.0013  -6.0013  -5.5214  -5.5213  -5.5213
    -3.4489  -3.4489  -3.4489  -3.1207  -3.1207  -3.1207  -2.4266  -2.4266
    -2.4266  -2.1002  -2.1001  -2.1001  -1.7804  -1.7804  -1.7804  -1.4917
    -1.4917  -1.4917  -0.9691  -0.9691  -0.9690  -0.5364  -0.5364  -0.5363
     0.2501   0.2501   0.2501   0.2949   0.2950   0.2950   4.7735   4.7735
     4.7736   4.9446   4.9446   4.9446   5.4099   5.4099   5.4117   5.6594
     5.6595

          k = 0.3311 0.5736 0.2806 ( 35052 PWs)   bands (ev):

   -43.7299 -43.7299 -43.7299 -43.7287 -43.7287 -43.7287 -43.7239 -43.7239
   -43.7239 -43.7214 -43.7214 -43.7214 -43.7179 -43.7179 -43.7179 -43.7173
   -43.7173 -43.7173  -5.9078  -5.9077  -5.9077  -5.6700  -5.6699  -5.6699
    -3.1971  -3.1971  -3.1971  -3.1127  -3.1127  -3.1127  -2.4579  -2.4579
    -2.4579  -2.1488  -2.1488  -2.1488  -2.0115  -2.0115  -2.0115  -1.6074
    -1.6074  -1.6074  -0.8197  -0.8197  -0.8196  -0.3266  -0.3266  -0.3266
    -0.0740  -0.0740  -0.0740   0.4589   0.4589   0.4589   4.5499   4.5499
     4.5500   5.2697   5.2699   5.2699   5.6593   5.6594   5.6604   6.0006
     6.0008

          k = 0.0000-0.3824 0.2806 ( 35040 PWs)   bands (ev):

   -43.7324 -43.7307 -43.7288 -43.7276 -43.7276 -43.7271 -43.7256 -43.7233
   -43.7233 -43.7225 -43.7210 -43.7208 -43.7188 -43.7185 -43.7182 -43.7179
   -43.7169 -43.7163  -6.2635  -5.9811  -5.7707  -5.5386  -5.4892  -5.4760
    -3.5523  -3.2719  -3.2159  -3.0593  -3.0578  -2.9218  -2.5212  -2.5178
    -2.4343  -2.2832  -2.2760  -2.1857  -2.0859  -2.0718  -1.9516  -1.6376
    -1.5268  -1.2730  -1.2588  -1.0117  -0.8576  -0.5261  -0.1994  -0.0353
     0.0716   0.0718   0.1118   0.5131   0.5143   0.6025   4.5189   4.9694
     5.0082   5.0430   5.1761   5.2185   5.4031   5.6426   5.8133   5.9126
     5.9922

          k =-0.3311-0.5736 0.2806 ( 35052 PWs)   bands (ev):

   -43.7302 -43.7302 -43.7302 -43.7281 -43.7281 -43.7281 -43.7246 -43.7246
   -43.7246 -43.7209 -43.7209 -43.7209 -43.7181 -43.7181 -43.7181 -43.7172
   -43.7172 -43.7172  -5.9108  -5.9108  -5.9108  -5.6655  -5.6655  -5.6655
    -3.2370  -3.2370  -3.2370  -3.0388  -3.0388  -3.0388  -2.6105  -2.6105
    -2.6105  -2.1104  -2.1104  -2.1104  -1.9433  -1.9433  -1.9433  -1.4436
    -1.4436  -1.4436  -0.8417  -0.8417  -0.8416  -0.6599  -0.6599  -0.6598
     0.0938   0.0938   0.0938   0.4880   0.4881   0.4881   4.7477   4.7477
     4.7478   5.2088   5.2088   5.2089   5.5910   5.5910   5.5910   5.8840
     5.8840

     the Fermi energy is     3.9255 ev

!    total energy              =    -540.73498313 Ry
     estimated scf accuracy    <          3.0E-11 Ry
     smearing contrib. (-TS)   =      -0.00000000 Ry
     internal energy E=F+TS    =    -540.73498313 Ry

     The total energy is F=E-TS. E is the sum of the following terms:
     one-electron contribution =    -142.32638716 Ry
     hartree contribution      =      71.18324142 Ry
     xc contribution           =    -103.44642370 Ry
     ewald contribution        =    -158.12098499 Ry
     one-center paw contrib.   =    -208.02442870 Ry

     convergence has been achieved in  10 iterations

     Forces acting on atoms (cartesian axes, Ry/au):

     atom    1 type  1   force =     0.00000000   -0.00000000   -0.00000000
     atom    2 type  1   force =    -0.00000000   -0.00000000    0.00000000
     atom    3 type  1   force =     0.00000000   -0.00000000   -0.00000709
     atom    4 type  1   force =    -0.00000000    0.00000000   -0.00000104
     atom    5 type  1   force =    -0.00000000    0.00000000    0.00000709
     atom    6 type  1   force =     0.00000000   -0.00000000    0.00000104
     atom    7 type  2   force =    -0.00033158   -0.00013454   -0.00008298
     atom    8 type  2   force =     0.00028230   -0.00021989   -0.00008298
     atom    9 type  2   force =     0.00033158    0.00013454    0.00008298
     atom   10 type  2   force =    -0.00028230    0.00021989    0.00008298
     atom   11 type  2   force =     0.00004928    0.00035443   -0.00008298
     atom   12 type  2   force =    -0.00004928   -0.00035443    0.00008298
     atom   13 type  2   force =    -0.00033215   -0.00013481   -0.00007586
     atom   14 type  2   force =     0.00028283   -0.00022025   -0.00007586
     atom   15 type  2   force =     0.00033249    0.00013188    0.00006254
     atom   16 type  2   force =    -0.00028045    0.00022201    0.00006254
     atom   17 type  2   force =     0.00004932    0.00035506   -0.00007586
     atom   18 type  2   force =    -0.00005204   -0.00035388    0.00006254
     atom   19 type  2   force =    -0.00033249   -0.00013188   -0.00006254
     atom   20 type  2   force =     0.00028045   -0.00022201   -0.00006254
     atom   21 type  2   force =     0.00033215    0.00013481    0.00007586
     atom   22 type  2   force =    -0.00028283    0.00022025    0.00007586
     atom   23 type  2   force =     0.00005204    0.00035388   -0.00006254
     atom   24 type  2   force =    -0.00004932   -0.00035506    0.00007586
     atom   25 type  3   force =    -0.00001150    0.00047783   -0.00026241
     atom   26 type  3   force =     0.00001150   -0.00047783    0.00026241
     atom   27 type  3   force =     0.00013792    0.00050702    0.00029653
     atom   28 type  3   force =    -0.00050805   -0.00013406    0.00029653
     atom   29 type  3   force =     0.00037013   -0.00037295    0.00029653
     atom   30 type  3   force =    -0.00013792   -0.00050702   -0.00029653
     atom   31 type  3   force =     0.00050805    0.00013406   -0.00029653
     atom   32 type  3   force =    -0.00037013    0.00037295   -0.00029653
     atom   33 type  3   force =     0.00040806    0.00024887    0.00026241
     atom   34 type  3   force =     0.00041956   -0.00022896   -0.00026241
     atom   35 type  3   force =    -0.00040806   -0.00024887   -0.00026241
     atom   36 type  3   force =    -0.00041956    0.00022896    0.00026241
     atom   37 type  3   force =    -0.00000905    0.00047590   -0.00025573
     atom   38 type  3   force =     0.00001118   -0.00047769    0.00026218
     atom   39 type  3   force =     0.00013720    0.00050626    0.00029052
     atom   40 type  3   force =    -0.00050704   -0.00013432    0.00029052
     atom   41 type  3   force =     0.00036984   -0.00037195    0.00029052
     atom   42 type  3   force =    -0.00013653   -0.00050501   -0.00029360
     atom   43 type  3   force =     0.00050562    0.00013427   -0.00029360
     atom   44 type  3   force =    -0.00036909    0.00037074   -0.00029360
     atom   45 type  3   force =     0.00040811    0.00024852    0.00026218
     atom   46 type  3   force =     0.00041667   -0.00023011   -0.00025573
     atom   47 type  3   force =    -0.00040762   -0.00024579   -0.00025573
     atom   48 type  3   force =    -0.00041928    0.00022917    0.00026218
     atom   49 type  3   force =    -0.00001118    0.00047769   -0.00026218
     atom   50 type  3   force =     0.00000905   -0.00047590    0.00025573
     atom   51 type  3   force =     0.00013653    0.00050501    0.00029360
     atom   52 type  3   force =    -0.00050562   -0.00013427    0.00029360
     atom   53 type  3   force =     0.00036909   -0.00037074    0.00029360
     atom   54 type  3   force =    -0.00013720   -0.00050626   -0.00029052
     atom   55 type  3   force =     0.00050704    0.00013432   -0.00029052
     atom   56 type  3   force =    -0.00036984    0.00037195   -0.00029052
     atom   57 type  3   force =     0.00040762    0.00024579    0.00025573
     atom   58 type  3   force =     0.00041928   -0.00022917   -0.00026218
     atom   59 type  3   force =    -0.00040811   -0.00024852   -0.00026218
     atom   60 type  3   force =    -0.00041667    0.00023011    0.00025573

     Total force =     0.003772     Total SCF correction =     0.000003


     Computing stress (Cartesian axis) and pressure

          total   stress  (Ry/bohr**3)                   (kbar)     P=        0.29
   0.00000154  -0.00000000  -0.00000000            0.23       -0.00       -0.00
   0.00000000   0.00000154   0.00000000            0.00        0.23        0.00
  -0.00000000   0.00000000   0.00000287           -0.00        0.00        0.42


     Writing all to output data dir ./LiAlH4.save/
 
     init_run     :      2.91s CPU      3.26s WALL (       2 calls)
     electrons    :    114.23s CPU    115.41s WALL (       6 calls)
     update_pot   :      1.87s CPU      1.88s WALL (       4 calls)
     forces       :      2.93s CPU      2.97s WALL (       6 calls)
     stress       :      6.24s CPU      6.27s WALL (       6 calls)

     Called by init_run:
     wfcinit      :      1.95s CPU      2.07s WALL (       2 calls)
     potinit      :      0.53s CPU      0.53s WALL (       2 calls)
     hinit0       :      0.31s CPU      0.48s WALL (       2 calls)

     Called by electrons:
     c_bands      :     94.22s CPU     94.93s WALL (      53 calls)
     sum_band     :      9.57s CPU      9.76s WALL (      53 calls)
     v_of_rho     :      0.28s CPU      0.28s WALL (      58 calls)
     newd         :      1.00s CPU      1.11s WALL (      58 calls)
     PAW_pot      :     10.83s CPU     10.87s WALL (      62 calls)
     mix_rho      :      0.11s CPU      0.12s WALL (      53 calls)

     Called by c_bands:
     init_us_2    :      0.77s CPU      0.80s WALL (     992 calls)
     init_us_2:cp :      0.77s CPU      0.80s WALL (     992 calls)
     cegterg      :     91.29s CPU     91.97s WALL (     431 calls)

     Called by *egterg:
     cdiaghg      :     13.42s CPU     13.50s WALL (    2188 calls)
     h_psi        :     49.40s CPU     49.98s WALL (    2251 calls)
     s_psi        :      5.84s CPU      5.87s WALL (    2251 calls)
     g_psi        :      0.09s CPU      0.09s WALL (    1804 calls)

     Called by h_psi:
     h_psi:calbec :     10.23s CPU     10.39s WALL (    2251 calls)
     vloc_psi     :     31.86s CPU     32.24s WALL (    2251 calls)
     add_vuspsi   :      7.19s CPU      7.22s WALL (    2251 calls)

     General routines
     calbec       :     16.40s CPU     16.58s WALL (    2947 calls)
     fft          :      0.24s CPU      0.40s WALL (     793 calls)
     ffts         :      0.02s CPU      0.02s WALL (      53 calls)
     fftw         :     35.91s CPU     36.32s WALL (  210614 calls)
 
     Parallel routines
 
     PWSCF        :   2m10.03s CPU   2m12.51s WALL

 
   This run was terminated on:  21:59:46   6Dec2023            

=------------------------------------------------------------------------------=
   JOB DONE.
=------------------------------------------------------------------------------=
