
     Program PWSCF v.7.1 starts on  6Dec2023 at 22:33:50 

     This program is part of the open-source Quantum ESPRESSO suite
     for quantum simulation of materials; please cite
         "P. Giannozzi et al., J. Phys.:Condens. Matter 21 395502 (2009);
         "P. Giannozzi et al., J. Phys.:Condens. Matter 29 465901 (2017);
         "P. Giannozzi et al., J. Chem. Phys. 152 154105 (2020);
          URL http://www.quantum-espresso.org", 
     in publications or presentations arising from this work. More details at
     http://www.quantum-espresso.org/quote

     Parallel version (MPI & OpenMP), running on      28 processor cores
     Number of MPI processes:                28
     Threads/MPI process:                     1

     MPI processes distributed on     1 nodes
     121204 MiB available memory on the printing compute node when the environment starts
 
     Reading input from LiAlH4.in

     Current dimensions of program PWSCF are:
     Max number of different atomic species (ntypx) = 10
     Max number of k-points (npk) =  40000
     Max angular momentum in pseudopotentials (lmaxx) =  4
     file Al.pbe-n-kjpaw_psl.1.0.0.UPF: wavefunction(s)  3S 3P renormalized

     IMPORTANT: XC functional enforced from input :
     Exchange-correlation= PBE
                           (   1   4   3   4   0   0   0)
     Any further DFT definition will be discarded
     Please, verify this is what you really want

     Message from routine set_cutoff:
     ecutrho < 4*ecutwfc, are you sure?
     Found identity + (  0.5000 -0.5000  0.0000) symmetry
     This is a supercell, fractional translations are disabled
     Message from routine setup:
     using ibrav=0 with symmetry is DISCOURAGED, use correct ibrav instead
 
     K-points division:     npool     =       2
     R & G space division:  proc/nbgrp/npool/nimage =      14
     Subspace diagonalization in iterative solution of the eigenvalue problem:
     a serial algorithm will be used

 
     Parallelization info
     --------------------
     sticks:   dense  smooth     PW     G-vecs:    dense   smooth      PW
     Min         271     271    110                 4994     4994    1300
     Max         272     272    111                 4995     4995    1301
     Sum        3795    3795   1551                69923    69923   18213
 
     Using Slab Decomposition
 


     bravais-lattice index     =            0
     lattice parameter (alat)  =      12.0953  a.u.
     unit-cell volume          =    1462.4996 (a.u.)^3
     number of atoms/cell      =           24
     number of atomic types    =            3
     number of electrons       =        40.00
     number of Kohn-Sham states=           24
     kinetic-energy cutoff     =      70.0000  Ry
     charge density cutoff     =     200.0000  Ry
     scf convergence threshold =      1.0E-08
     mixing beta               =       0.7000
     number of iterations used =            8  plain     mixing
     energy convergence thresh.=      1.0E-04
     force convergence thresh. =      1.0E-03
     press convergence thresh. =      5.0E-01
     Exchange-correlation= PBE
                           (   1   4   3   4   0   0   0)
     nstep                     =           50


     celldm(1)=  12.095268  celldm(2)=   0.000000  celldm(3)=   0.000000
     celldm(4)=   0.000000  celldm(5)=   0.000000  celldm(6)=   0.000000

     crystal axes: (cart. coord. in units of alat)
               a(1) = (   1.000000   0.000000   0.000000 )  
               a(2) = (   0.000000   1.629009   0.000000 )  
               a(3) = (  -0.490892   0.000000   0.507371 )  

     reciprocal axes: (cart. coord. in units 2 pi/alat)
               b(1) = (  1.000000  0.000000  0.967521 )  
               b(2) = (  0.000000  0.613870  0.000000 )  
               b(3) = (  0.000000  0.000000  1.970943 )  


     PseudoPot. # 1 for Al read from file:
     /scratch/antwerpen/209/vsc20922/pseudos/Al.pbe-n-kjpaw_psl.1.0.0.UPF
     MD5 check sum: cfc449ca30b5f3223ec38ddd88ac046d
     Pseudo is Projector augmented-wave + core cor, Zval =  3.0
     Generated using "atomic" code by A. Dal Corso  v.5.1
     Shape of augmentation charge: PSQ
     Using radial grid of 1135 points,  6 beta functions with: 
                l(1) =   0
                l(2) =   0
                l(3) =   1
                l(4) =   1
                l(5) =   2
                l(6) =   2
     Q(r) pseudized with 0 coefficients 


     PseudoPot. # 2 for Li read from file:
     /scratch/antwerpen/209/vsc20922/pseudos/li_pbe_v1.4.uspp.F.UPF
     MD5 check sum: e912e257baa3777c20ea3d68f190483c
     Pseudo is Ultrasoft, Zval =  3.0
     Generated by new atomic code, or converted to UPF format
     Using radial grid of  751 points,  5 beta functions with: 
                l(1) =   0
                l(2) =   0
                l(3) =   0
                l(4) =   1
                l(5) =   1
     Q(r) pseudized with 10 coefficients,  rinner =    1.150   1.150   1.150


     PseudoPot. # 3 for H  read from file:
     /scratch/antwerpen/209/vsc20922/pseudos/H.pbe-rrkjus_psl.1.0.0.UPF
     MD5 check sum: f52b6d4d1c606e5624b1dc7b2218f220
     Pseudo is Ultrasoft, Zval =  1.0
     Generated using "atomic" code by A. Dal Corso  v.5.1
     Using radial grid of  929 points,  2 beta functions with: 
                l(1) =   0
                l(2) =   0
     Q(r) pseudized with 0 coefficients 


     atomic species   valence    mass     pseudopotential
        Al             3.00    26.98100     Al( 1.00)
        Li             3.00     6.96750     Li( 1.00)
        H              1.00     1.00750     H ( 1.00)

      2 Sym. Ops., with inversion, found



   Cartesian axes

     site n.     atom                  positions (alat units)
         1           Al  tau(   1) = (   0.1318309   0.6135511   0.3805284  )
         2           Al  tau(   2) = (  -0.1227231   0.2009532   0.1268428  )
         3           Al  tau(   3) = (  -0.3681691   1.4280557   0.3805284  )
         4           Al  tau(   4) = (   0.3772769   1.0154578   0.1268428  )
         5           Li  tau(   5) = (  -0.3681691   0.5919848   0.3805282  )
         6           Li  tau(   6) = (   0.3772769   0.2225200   0.1268430  )
         7           Li  tau(   7) = (   0.1318310   1.4064889   0.3805282  )
         8           Li  tau(   8) = (  -0.1227231   1.0370242   0.1268430  )
         9           H   tau(   9) = (   0.5857558   0.4761703   0.0894734  )
        10           H   tau(  10) = (   0.4233521   0.3383345   0.4178980  )
        11           H   tau(  11) = (  -0.1596904   0.3383345   0.3431589  )
        12           H   tau(  12) = (   0.1687982   0.4761703   0.1642123  )
        13           H   tau(  13) = (   0.0966451   0.0723579   0.1613929  )
        14           H   tau(  14) = (  -0.0875372   0.7421470   0.3459785  )
        15           H   tau(  15) = (   0.3511990   0.7421470   0.4150784  )
        16           H   tau(  16) = (   0.6579087   0.0723578   0.0922927  )
        17           H   tau(  17) = (   0.0857557   1.2906744   0.0894733  )
        18           H   tau(  18) = (  -0.0766480   1.1528386   0.4178979  )
        19           H   tau(  19) = (   0.3403097   1.1528386   0.3431590  )
        20           H   tau(  20) = (   0.6687982   1.2906744   0.1642123  )
        21           H   tau(  21) = (   0.5966450   0.8868619   0.1613928  )
        22           H   tau(  22) = (   0.4124627   1.5566510   0.3459784  )
        23           H   tau(  23) = (  -0.1488009   1.5566511   0.4150785  )
        24           H   tau(  24) = (   0.1579089   0.8868619   0.0922929  )

     number of k points=    63  Marzari-Vanderbilt smearing, width (Ry)=  0.0050
                       cart. coord. in units 2pi/alat
        k(    1) = (   0.0000000   0.0000000   0.0000000), wk =   0.0160000
        k(    2) = (   0.0000000   0.0000000   0.3941887), wk =   0.0320000
        k(    3) = (   0.0000000   0.0000000   0.7883773), wk =   0.0320000
        k(    4) = (   0.0000000   0.1227740   0.0000000), wk =   0.0320000
        k(    5) = (   0.0000000   0.1227740   0.3941887), wk =   0.0320000
        k(    6) = (   0.0000000   0.1227740   0.7883773), wk =   0.0320000
        k(    7) = (   0.0000000   0.2455481   0.0000000), wk =   0.0320000
        k(    8) = (   0.0000000   0.2455481   0.3941887), wk =   0.0320000
        k(    9) = (   0.0000000   0.2455481   0.7883773), wk =   0.0320000
        k(   10) = (   0.2000000   0.0000000   0.1935041), wk =   0.0320000
        k(   11) = (   0.2000000   0.0000000   0.5876928), wk =   0.0320000
        k(   12) = (   0.2000000   0.0000000   0.9818815), wk =   0.0320000
        k(   13) = (   0.2000000   0.0000000  -0.5948732), wk =   0.0320000
        k(   14) = (   0.2000000   0.0000000  -0.2006845), wk =   0.0320000
        k(   15) = (   0.2000000   0.1227740   0.1935041), wk =   0.0320000
        k(   16) = (   0.2000000   0.1227740   0.5876928), wk =   0.0320000
        k(   17) = (   0.2000000   0.1227740   0.9818815), wk =   0.0320000
        k(   18) = (   0.2000000   0.1227740  -0.5948732), wk =   0.0320000
        k(   19) = (   0.2000000   0.1227740  -0.2006845), wk =   0.0320000
        k(   20) = (   0.2000000   0.2455481   0.1935041), wk =   0.0320000
        k(   21) = (   0.2000000   0.2455481   0.5876928), wk =   0.0320000
        k(   22) = (   0.2000000   0.2455481   0.9818815), wk =   0.0320000
        k(   23) = (   0.2000000   0.2455481  -0.5948732), wk =   0.0320000
        k(   24) = (   0.2000000   0.2455481  -0.2006845), wk =   0.0320000
        k(   25) = (   0.4000000   0.0000000   0.3870083), wk =   0.0320000
        k(   26) = (   0.4000000   0.0000000   0.7811969), wk =   0.0320000
        k(   27) = (   0.4000000   0.0000000   1.1753856), wk =   0.0320000
        k(   28) = (   0.4000000   0.0000000  -0.4013691), wk =   0.0320000
        k(   29) = (   0.4000000   0.0000000  -0.0071804), wk =   0.0320000
        k(   30) = (   0.4000000   0.1227740   0.3870083), wk =   0.0320000
        k(   31) = (   0.4000000   0.1227740   0.7811969), wk =   0.0320000
        k(   32) = (   0.4000000   0.1227740   1.1753856), wk =   0.0320000
        k(   33) = (   0.4000000   0.1227740  -0.4013691), wk =   0.0320000
        k(   34) = (   0.4000000   0.1227740  -0.0071804), wk =   0.0320000
        k(   35) = (   0.4000000   0.2455481   0.3870083), wk =   0.0320000
        k(   36) = (   0.4000000   0.2455481   0.7811969), wk =   0.0320000
        k(   37) = (   0.4000000   0.2455481   1.1753856), wk =   0.0320000
        k(   38) = (   0.4000000   0.2455481  -0.4013691), wk =   0.0320000
        k(   39) = (   0.4000000   0.2455481  -0.0071804), wk =   0.0320000
        k(   40) = (   0.0000000   0.1227740  -0.3941887), wk =   0.0320000
        k(   41) = (   0.0000000   0.1227740  -0.7883773), wk =   0.0320000
        k(   42) = (   0.0000000   0.2455481  -0.3941887), wk =   0.0320000
        k(   43) = (   0.0000000   0.2455481  -0.7883773), wk =   0.0320000
        k(   44) = (  -0.2000000   0.1227740  -0.1935041), wk =   0.0320000
        k(   45) = (  -0.2000000   0.1227740  -0.5876928), wk =   0.0320000
        k(   46) = (  -0.2000000   0.1227740  -0.9818815), wk =   0.0320000
        k(   47) = (  -0.2000000   0.1227740   0.5948732), wk =   0.0320000
        k(   48) = (  -0.2000000   0.1227740   0.2006845), wk =   0.0320000
        k(   49) = (  -0.2000000   0.2455481  -0.1935041), wk =   0.0320000
        k(   50) = (  -0.2000000   0.2455481  -0.5876928), wk =   0.0320000
        k(   51) = (  -0.2000000   0.2455481  -0.9818815), wk =   0.0320000
        k(   52) = (  -0.2000000   0.2455481   0.5948732), wk =   0.0320000
        k(   53) = (  -0.2000000   0.2455481   0.2006845), wk =   0.0320000
        k(   54) = (  -0.4000000   0.1227740  -0.3870083), wk =   0.0320000
        k(   55) = (  -0.4000000   0.1227740  -0.7811969), wk =   0.0320000
        k(   56) = (  -0.4000000   0.1227740  -1.1753856), wk =   0.0320000
        k(   57) = (  -0.4000000   0.1227740   0.4013691), wk =   0.0320000
        k(   58) = (  -0.4000000   0.1227740   0.0071804), wk =   0.0320000
        k(   59) = (  -0.4000000   0.2455481  -0.3870083), wk =   0.0320000
        k(   60) = (  -0.4000000   0.2455481  -0.7811969), wk =   0.0320000
        k(   61) = (  -0.4000000   0.2455481  -1.1753856), wk =   0.0320000
        k(   62) = (  -0.4000000   0.2455481   0.4013691), wk =   0.0320000
        k(   63) = (  -0.4000000   0.2455481   0.0071804), wk =   0.0320000

     Dense  grid:    69923 G-vectors     FFT dimensions: (  60,  90,  40)

     Estimated max dynamical RAM per process >      33.94 MB

     Estimated total dynamical RAM >     933.26 MB

     Initial potential from superposition of free atoms

     starting charge      38.1877, renormalised to      40.0000
     Starting wfcs are   52 randomized atomic wfcs
     Checking if some PAW data can be deallocated... 

     total cpu time spent up to now is        2.4 secs

     Self-consistent Calculation

     iteration #  1     ecut=    70.00 Ry     beta= 0.70
     Davidson diagonalization with overlap
     ethr =  1.00E-02,  avg # of iterations =  3.4

     total cpu time spent up to now is        4.7 secs

     total energy              =    -234.66112917 Ry
     estimated scf accuracy    <       0.90544789 Ry

     iteration #  2     ecut=    70.00 Ry     beta= 0.70
     Davidson diagonalization with overlap
     ethr =  2.26E-03,  avg # of iterations =  2.0

     total cpu time spent up to now is        6.8 secs

     total energy              =    -234.78149462 Ry
     estimated scf accuracy    <       0.03847887 Ry

     iteration #  3     ecut=    70.00 Ry     beta= 0.70
     Davidson diagonalization with overlap
     ethr =  9.62E-05,  avg # of iterations =  9.1

     total cpu time spent up to now is       11.0 secs

     total energy              =    -234.80407421 Ry
     estimated scf accuracy    <       0.00251873 Ry

     iteration #  4     ecut=    70.00 Ry     beta= 0.70
     Davidson diagonalization with overlap
     c_bands:  2 eigenvalues not converged
     c_bands:  1 eigenvalues not converged
     c_bands:  1 eigenvalues not converged
     ethr =  6.30E-06,  avg # of iterations = 10.7

     total cpu time spent up to now is       14.8 secs

     total energy              =    -234.80488589 Ry
     estimated scf accuracy    <       0.00017652 Ry

     iteration #  5     ecut=    70.00 Ry     beta= 0.70
     Davidson diagonalization with overlap
     ethr =  4.41E-07,  avg # of iterations =  5.7

     total cpu time spent up to now is       17.7 secs

     total energy              =    -234.80495003 Ry
     estimated scf accuracy    <       0.00002137 Ry

     iteration #  6     ecut=    70.00 Ry     beta= 0.70
     Davidson diagonalization with overlap
     ethr =  5.34E-08,  avg # of iterations =  3.8

     total cpu time spent up to now is       20.3 secs

     total energy              =    -234.80495699 Ry
     estimated scf accuracy    <       0.00000133 Ry

     iteration #  7     ecut=    70.00 Ry     beta= 0.70
     Davidson diagonalization with overlap
     ethr =  3.33E-09,  avg # of iterations =  4.4

     total cpu time spent up to now is       23.0 secs

     total energy              =    -234.80495723 Ry
     estimated scf accuracy    <       0.00000102 Ry

     iteration #  8     ecut=    70.00 Ry     beta= 0.70
     Davidson diagonalization with overlap
     ethr =  2.55E-09,  avg # of iterations =  1.4

     total cpu time spent up to now is       24.8 secs

     total energy              =    -234.80495723 Ry
     estimated scf accuracy    <       0.00000011 Ry

     iteration #  9     ecut=    70.00 Ry     beta= 0.70
     Davidson diagonalization with overlap
     ethr =  2.72E-10,  avg # of iterations =  4.4

     total cpu time spent up to now is       27.6 secs

     total energy              =    -234.80495728 Ry
     estimated scf accuracy    <       0.00000002 Ry

     iteration # 10     ecut=    70.00 Ry     beta= 0.70
     Davidson diagonalization with overlap
     ethr =  5.07E-11,  avg # of iterations =  2.0

     total cpu time spent up to now is       29.7 secs

     End of self-consistent calculation

          k = 0.0000 0.0000 0.0000 ( 14493 PWs)   bands (ev):

   -43.9185 -43.9177 -43.9158 -43.9150  -6.9046  -5.7823  -5.7476  -2.8546
    -2.3876  -2.2270  -2.1324  -1.3795  -1.2888  -1.1600  -0.9754   0.1765
     0.2683   0.3267   0.3936   0.6952   4.6634   4.9563   4.9604   5.3378

          k = 0.0000 0.0000 0.3942 ( 14461 PWs)   bands (ev):

   -43.9182 -43.9175 -43.9159 -43.9153  -6.4773  -5.4037  -5.3883  -2.8725
    -2.7070  -2.6791  -2.4454  -1.8801  -1.7436  -1.6529  -0.7169  -0.2028
    -0.0906   0.1800   0.1903   0.2084   5.1477   5.4890   5.8571   5.9314

          k = 0.0000 0.0000 0.7884 ( 14425 PWs)   bands (ev):

   -43.9172 -43.9170 -43.9164 -43.9162  -5.2703  -4.6422  -4.5911  -3.7741
    -3.0204  -2.8423  -2.5084  -2.4774  -2.1446  -1.7532  -1.5724  -1.4442
    -1.2591  -0.5172  -0.4484  -0.1952   4.8026   4.9601   5.0032   5.6249

          k = 0.0000 0.1228 0.0000 ( 14495 PWs)   bands (ev):

   -43.9185 -43.9178 -43.9157 -43.9151  -6.8584  -6.1717  -5.2747  -3.3927
    -2.1860  -2.0920  -1.8417  -1.6015  -1.5227  -0.8550  -0.7379  -0.0684
     0.1665   0.2324   0.5097   0.6888   4.6417   4.8529   4.9954   5.2377

          k = 0.0000 0.1228 0.3942 ( 14469 PWs)   bands (ev):

   -43.9181 -43.9176 -43.9159 -43.9154  -6.4331  -5.7790  -4.9396  -3.2779
    -2.6653  -2.6398  -2.2624  -2.0519  -1.7670  -1.3048  -0.5708  -0.4192
    -0.1940   0.1416   0.2077   0.2600   5.1842   5.6103   5.7678   5.9298

          k = 0.0000 0.1228 0.7884 ( 14439 PWs)   bands (ev):

   -43.9172 -43.9170 -43.9164 -43.9162  -5.2390  -4.8228  -4.4034  -3.8386
    -3.0457  -2.7028  -2.6613  -2.4426  -1.9258  -1.8237  -1.8016  -1.2657
    -1.2233  -0.6003  -0.4942  -0.2199   4.8504   5.1429   5.1803   5.8929

          k = 0.0000 0.2455 0.0000 ( 14490 PWs)   bands (ev):

   -43.9183 -43.9181 -43.9155 -43.9152  -6.7202  -6.4908  -4.7077  -4.0732
    -2.0641  -1.9721  -1.8656  -1.7778  -1.1513  -0.5399  -0.4663  -0.3701
    -0.1030  -0.0221   0.6119   0.6652   4.6361   4.7138   5.0250   5.1027

          k = 0.0000 0.2455 0.3942 ( 14455 PWs)   bands (ev):

   -43.9180 -43.9178 -43.9157 -43.9155  -6.3009  -6.0820  -4.4204  -3.8555
    -2.5435  -2.5239  -2.3712  -2.3273  -1.3241  -0.8909  -0.8357  -0.4967
    -0.2725  -0.0067   0.2500   0.2841   5.3177   5.5385   5.8520   5.8573

          k = 0.0000 0.2455 0.7884 ( 14450 PWs)   bands (ev):

   -43.9172 -43.9171 -43.9163 -43.9162  -5.1478  -5.0045  -4.1944  -3.9967
    -3.0079  -2.8736  -2.4234  -2.2944  -2.0860  -2.0598  -1.5573  -1.2774
    -1.0598  -0.8133  -0.4718  -0.3230   5.1121   5.4949   5.6730   5.8654

          k = 0.2000 0.0000 0.1935 ( 14496 PWs)   bands (ev):

   -43.9182 -43.9175 -43.9160 -43.9152  -6.6966  -5.6187  -5.5617  -2.9288
    -2.8728  -2.6446  -1.9776  -1.9311  -1.1380  -1.1362  -0.8602  -0.2044
     0.1592   0.3886   0.4005   0.5076   4.8939   5.1803   5.5111   5.5945

          k = 0.2000 0.0000 0.5877 ( 14451 PWs)   bands (ev):

   -43.9175 -43.9168 -43.9166 -43.9160  -5.9028  -5.3240  -4.7536  -3.7850
    -3.4119  -2.8862  -2.1407  -1.8345  -1.6536  -1.2162  -0.9762  -0.9196
    -0.6561  -0.4681  -0.0749   0.1489   5.2520   5.4383   5.7425   5.9384

          k = 0.2000 0.0000 0.9819 ( 14451 PWs)   bands (ev):

   -43.9172 -43.9170 -43.9164 -43.9162  -5.2475  -4.6240  -4.6168  -3.7799
    -2.9699  -2.8941  -2.5305  -2.5169  -2.2116  -1.7281  -1.5465  -1.3869
    -1.2098  -0.5527  -0.5093  -0.1514   4.8014   5.0024   5.0337   5.5890

          k = 0.2000 0.0000-0.5949 ( 14469 PWs)   bands (ev):

   -43.9179 -43.9177 -43.9157 -43.9155  -5.8685  -5.2493  -4.7050  -3.6247
    -3.5236  -2.9455  -2.1129  -1.8479  -1.8260  -1.1279  -1.0819  -0.8744
    -0.6852  -0.4593  -0.0637  -0.0037   5.2214   5.3521   5.3558   5.7873

          k = 0.2000 0.0000-0.2007 ( 14475 PWs)   bands (ev):

   -43.9184 -43.9178 -43.9157 -43.9151  -6.6833  -5.6276  -5.5108  -2.8843
    -2.7217  -2.6331  -2.0165  -1.9979  -1.2069  -1.1450  -1.0246  -0.1069
     0.0626   0.2114   0.5084   0.5175   4.8786   5.0740   5.5207   5.6816

          k = 0.2000 0.1228 0.1935 ( 14484 PWs)   bands (ev):

   -43.9182 -43.9176 -43.9159 -43.9153  -6.6515  -5.9840  -5.1191  -3.3720
    -2.8869  -2.4243  -1.8920  -1.8600  -1.3399  -0.9198  -0.6264  -0.4147
     0.1184   0.2628   0.4660   0.5129   4.9015   5.0746   5.5548   5.7410

          k = 0.2000 0.1228 0.5877 ( 14430 PWs)   bands (ev):

   -43.9174 -43.9170 -43.9165 -43.9160  -5.8676  -5.4259  -4.6430  -3.9197
    -3.3134  -2.7271  -2.1090  -2.0711  -1.7277  -1.2812  -1.1151  -0.7144
    -0.5657  -0.4261  -0.0528   0.1281   5.2632   5.3836   5.7877   6.0888

          k = 0.2000 0.1228 0.9819 ( 14438 PWs)   bands (ev):

   -43.9172 -43.9170 -43.9164 -43.9162  -5.2171  -4.8158  -4.4169  -3.8484
    -3.0404  -2.7097  -2.6986  -2.4562  -1.9970  -1.7870  -1.7676  -1.2413
    -1.1894  -0.5980  -0.5649  -0.1756   4.8445   5.1847   5.2193   5.8557

          k = 0.2000 0.1228-0.5949 ( 14454 PWs)   bands (ev):

   -43.9179 -43.9177 -43.9157 -43.9155  -5.8321  -5.3646  -4.5781  -3.7895
    -3.4302  -2.7836  -2.1483  -2.0784  -1.7260  -1.1801  -1.0928  -0.9248
    -0.7438  -0.2757  -0.0710   0.0485   5.1523   5.2232   5.4028   5.9905

          k = 0.2000 0.1228-0.2007 ( 14478 PWs)   bands (ev):

   -43.9184 -43.9179 -43.9156 -43.9151  -6.6381  -5.9689  -5.0907  -3.3058
    -2.8432  -2.3627  -1.9766  -1.8411  -1.4058  -0.9989  -0.7291  -0.3351
     0.0350   0.1343   0.5162   0.5333   4.8756   4.9843   5.6797   5.7217

          k = 0.2000 0.2455 0.1935 ( 14467 PWs)   bands (ev):

   -43.9180 -43.9178 -43.9157 -43.9155  -6.5167  -6.2934  -4.5812  -3.9897
    -2.7642  -2.5775  -1.7765  -1.5936  -1.3666  -0.8526  -0.5001  -0.2909
    -0.1080   0.0198   0.5133   0.5217   4.9181   4.9632   5.6255   5.7019

          k = 0.2000 0.2455 0.5877 ( 14445 PWs)   bands (ev):

   -43.9173 -43.9172 -43.9163 -43.9161  -5.7653  -5.6073  -4.4232  -4.1716
    -3.0416  -2.6931  -2.1518  -2.0186  -1.8774  -1.7372  -0.9376  -0.7413
    -0.3867  -0.2582  -0.0216   0.0362   5.3859   5.4569   5.5945   5.8453

          k = 0.2000 0.2455 0.9819 ( 14451 PWs)   bands (ev):

   -43.9172 -43.9171 -43.9163 -43.9162  -5.1287  -4.9905  -4.2114  -4.0122
    -3.0244  -2.9032  -2.4099  -2.2857  -2.0721  -2.0368  -1.6036  -1.3090
    -1.0488  -0.8134  -0.4665  -0.2849   5.1074   5.5804   5.7231   5.7628

          k = 0.2000 0.2455-0.5949 ( 14461 PWs)   bands (ev):

   -43.9179 -43.9178 -43.9156 -43.9156  -5.7259  -5.5600  -4.3380  -4.0682
    -3.1716  -2.8351  -2.1018  -1.9799  -1.8386  -1.6613  -0.9815  -0.8552
    -0.6253  -0.3559   0.0604   0.1146   5.0684   5.0801   5.6933   5.9192

          k = 0.2000 0.2455-0.2007 ( 14488 PWs)   bands (ev):

   -43.9182 -43.9180 -43.9154 -43.9152  -6.5029  -6.2788  -4.5471  -3.9444
    -2.7225  -2.5362  -1.8582  -1.6659  -1.3078  -0.7780  -0.5908  -0.3792
    -0.2021  -0.0734   0.5341   0.5458   4.8695   4.8923   5.7496   5.7762

          k = 0.4000 0.0000 0.3870 ( 14463 PWs)   bands (ev):

   -43.9175 -43.9168 -43.9167 -43.9159  -6.1290  -5.5586  -4.9194  -3.9364
    -3.6252  -3.0869  -2.0191  -1.3747  -1.1156  -0.8050  -0.7563  -0.6216
    -0.2552   0.0442   0.0498   0.2115   4.8561   5.1744   5.8084   5.8911

          k = 0.4000 0.0000 0.7812 ( 14488 PWs)   bands (ev):

   -43.9175 -43.9168 -43.9166 -43.9160  -5.8941  -5.3102  -4.7586  -3.7744
    -3.4363  -2.8881  -2.1513  -1.8182  -1.7518  -1.2633  -1.0027  -0.9256
    -0.5437  -0.4663   0.0423   0.0799   5.2424   5.5117   5.5765   5.8703

          k = 0.4000 0.0000 1.1754 ( 14463 PWs)   bands (ev):

   -43.9179 -43.9177 -43.9157 -43.9155  -5.8496  -5.2688  -4.6679  -3.6813
    -3.4997  -2.9875  -2.1809  -1.7652  -1.7471  -1.2391  -0.9893  -0.9444
    -0.8055  -0.2789  -0.1822   0.0367   5.1581   5.4170   5.7397   5.8806

          k = 0.4000 0.0000-0.4014 ( 14471 PWs)   bands (ev):

   -43.9182 -43.9180 -43.9155 -43.9152  -6.0767  -5.4881  -4.8218  -3.7746
    -3.6980  -3.1551  -1.9857  -1.4367  -1.0439  -0.9701  -0.8420  -0.6091
    -0.3750  -0.0551   0.0393   0.0921   4.7088   4.9782   5.7490   5.7509

          k = 0.4000 0.0000-0.0072 ( 14490 PWs)   bands (ev):

   -43.9182 -43.9175 -43.9159 -43.9153  -6.4689  -5.4049  -5.3711  -2.8889
    -2.7345  -2.6961  -2.4170  -1.8446  -1.7640  -1.7606  -0.6737  -0.2152
    -0.1779   0.1057   0.1689   0.3922   5.4308   5.4433   5.7655   6.1669

          k = 0.4000 0.1228 0.3870 ( 14465 PWs)   bands (ev):

   -43.9175 -43.9170 -43.9165 -43.9160  -6.0936  -5.6550  -4.8153  -4.0829
    -3.5221  -2.9164  -2.2251  -1.3837  -1.3227  -0.9148  -0.5692  -0.5011
    -0.1508  -0.0055   0.0874   0.2206   4.9078   5.1615   5.7702   5.8588

          k = 0.4000 0.1228 0.7812 ( 14472 PWs)   bands (ev):

   -43.9174 -43.9170 -43.9165 -43.9160  -5.8589  -5.4146  -4.6448  -3.9115
    -3.3409  -2.7382  -2.1171  -2.0928  -1.7264  -1.2333  -1.1918  -0.7570
    -0.7328  -0.1802   0.0222   0.0830   5.2659   5.3917   5.5450   6.1697

          k = 0.4000 0.1228 1.1754 ( 14466 PWs)   bands (ev):

   -43.9179 -43.9177 -43.9157 -43.9155  -5.8141  -5.3694  -4.5623  -3.8366
    -3.3981  -2.8174  -2.1474  -2.0772  -1.7444  -1.3208  -1.1001  -0.7791
    -0.5747  -0.4001  -0.1469   0.0580   5.1652   5.3806   5.8214   6.0080

          k = 0.4000 0.1228-0.4014 ( 14467 PWs)   bands (ev):

   -43.9182 -43.9180 -43.9155 -43.9153  -6.0404  -5.5882  -4.7159  -3.9541
    -3.5916  -2.9585  -2.2110  -1.4058  -1.3169  -0.9851  -0.7069  -0.5159
    -0.2445  -0.0633  -0.0057   0.1506   4.7456   4.9648   5.6248   5.7719

          k = 0.4000 0.1228-0.0072 ( 14484 PWs)   bands (ev):

   -43.9181 -43.9176 -43.9159 -43.9154  -6.4247  -5.7711  -4.9317  -3.2770
    -2.6954  -2.6543  -2.2666  -2.0932  -1.7294  -1.3830  -0.5193  -0.3939
    -0.3202   0.1728   0.1837   0.3344   5.4532   5.5724   5.8967   5.9092

          k = 0.4000 0.2455 0.3870 ( 14465 PWs)   bands (ev):

   -43.9174 -43.9172 -43.9162 -43.9161  -5.9908  -5.8330  -4.6000  -4.3457
    -3.2398  -2.8844  -2.2750  -1.8390  -1.2424  -1.0946  -0.3554  -0.2107
    -0.2093  -0.0056   0.1568   0.1949   5.0245   5.1217   5.7926   5.9014

          k = 0.4000 0.2455 0.7812 ( 14453 PWs)   bands (ev):

   -43.9173 -43.9172 -43.9163 -43.9161  -5.7564  -5.5978  -4.4215  -4.1667
    -3.0792  -2.7462  -2.1077  -2.0182  -1.8700  -1.6856  -1.0374  -0.8816
    -0.4460  -0.1655   0.0592   0.1302   5.2839   5.2949   5.6916   5.9766

          k = 0.4000 0.2455 1.1754 ( 14475 PWs)   bands (ev):

   -43.9179 -43.9178 -43.9156 -43.9156  -5.7106  -5.5512  -4.3498  -4.1002
    -3.1215  -2.7822  -2.1638  -2.0516  -1.8982  -1.7673  -0.8760  -0.6421
    -0.5116  -0.4156  -0.0720   0.0143   5.3204   5.3725   5.6867   5.7851

          k = 0.4000 0.2455-0.4014 ( 14466 PWs)   bands (ev):

   -43.9181 -43.9181 -43.9154 -43.9153  -5.9348  -5.7723  -4.4983  -4.2380
    -3.3002  -2.9359  -2.2514  -1.8079  -1.3063  -1.1579  -0.3770  -0.3568
    -0.2401  -0.1580   0.0965   0.1617   4.8286   4.9169   5.6293   5.7138

          k = 0.4000 0.2455-0.0072 ( 14478 PWs)   bands (ev):

   -43.9180 -43.9178 -43.9157 -43.9155  -6.2926  -6.0738  -4.4132  -3.8497
    -2.5791  -2.5336  -2.3978  -2.3475  -1.2887  -0.9815  -0.8046  -0.6042
    -0.1982   0.0958   0.2192   0.2526   5.5873   5.7807   5.7976   5.8496

          k = 0.0000 0.1228-0.3942 ( 14469 PWs)   bands (ev):

   -43.9181 -43.9176 -43.9159 -43.9154  -6.4331  -5.7790  -4.9396  -3.2779
    -2.6653  -2.6398  -2.2624  -2.0519  -1.7670  -1.3048  -0.5708  -0.4192
    -0.1940   0.1416   0.2077   0.2600   5.1842   5.6103   5.7679   5.9292

          k = 0.0000 0.1228-0.7884 ( 14439 PWs)   bands (ev):

   -43.9172 -43.9170 -43.9164 -43.9162  -5.2390  -4.8228  -4.4034  -3.8386
    -3.0457  -2.7028  -2.6613  -2.4426  -1.9258  -1.8237  -1.8016  -1.2657
    -1.2234  -0.6003  -0.4942  -0.2199   4.8504   5.1429   5.1803   5.8928

          k = 0.0000 0.2455-0.3942 ( 14455 PWs)   bands (ev):

   -43.9180 -43.9178 -43.9157 -43.9155  -6.3009  -6.0820  -4.4204  -3.8555
    -2.5435  -2.5239  -2.3712  -2.3273  -1.3241  -0.8909  -0.8357  -0.4967
    -0.2725  -0.0067   0.2500   0.2841   5.3177   5.5385   5.8522   5.8572

          k = 0.0000 0.2455-0.7884 ( 14450 PWs)   bands (ev):

   -43.9172 -43.9171 -43.9163 -43.9162  -5.1478  -5.0045  -4.1944  -3.9967
    -3.0079  -2.8736  -2.4234  -2.2944  -2.0860  -2.0598  -1.5573  -1.2774
    -1.0598  -0.8133  -0.4718  -0.3230   5.1120   5.4949   5.6730   5.8652

          k =-0.2000 0.1228-0.1935 ( 14484 PWs)   bands (ev):

   -43.9182 -43.9176 -43.9159 -43.9153  -6.6515  -5.9840  -5.1191  -3.3720
    -2.8869  -2.4243  -1.8920  -1.8600  -1.3399  -0.9198  -0.6264  -0.4147
     0.1184   0.2628   0.4660   0.5129   4.9015   5.0746   5.5548   5.7408

          k =-0.2000 0.1228-0.5877 ( 14430 PWs)   bands (ev):

   -43.9174 -43.9170 -43.9165 -43.9160  -5.8676  -5.4259  -4.6430  -3.9197
    -3.3134  -2.7271  -2.1090  -2.0711  -1.7277  -1.2812  -1.1151  -0.7144
    -0.5657  -0.4261  -0.0528   0.1281   5.2632   5.3836   5.7880   6.0889

          k =-0.2000 0.1228-0.9819 ( 14438 PWs)   bands (ev):

   -43.9172 -43.9170 -43.9164 -43.9162  -5.2171  -4.8157  -4.4169  -3.8484
    -3.0404  -2.7097  -2.6986  -2.4562  -1.9970  -1.7870  -1.7676  -1.2413
    -1.1894  -0.5980  -0.5649  -0.1756   4.8445   5.1847   5.2193   5.8558

          k =-0.2000 0.1228 0.5949 ( 14454 PWs)   bands (ev):

   -43.9179 -43.9177 -43.9157 -43.9155  -5.8321  -5.3646  -4.5781  -3.7895
    -3.4302  -2.7836  -2.1483  -2.0784  -1.7260  -1.1801  -1.0928  -0.9248
    -0.7438  -0.2757  -0.0710   0.0485   5.1522   5.2231   5.4028   5.9901

          k =-0.2000 0.1228 0.2007 ( 14478 PWs)   bands (ev):

   -43.9184 -43.9179 -43.9156 -43.9151  -6.6381  -5.9689  -5.0907  -3.3058
    -2.8432  -2.3627  -1.9766  -1.8411  -1.4058  -0.9989  -0.7291  -0.3351
     0.0350   0.1343   0.5162   0.5333   4.8756   4.9842   5.6798   5.7227

          k =-0.2000 0.2455-0.1935 ( 14467 PWs)   bands (ev):

   -43.9180 -43.9178 -43.9157 -43.9155  -6.5167  -6.2934  -4.5812  -3.9897
    -2.7642  -2.5775  -1.7765  -1.5936  -1.3666  -0.8526  -0.5001  -0.2909
    -0.1080   0.0198   0.5133   0.5217   4.9181   4.9633   5.6255   5.7024

          k =-0.2000 0.2455-0.5877 ( 14445 PWs)   bands (ev):

   -43.9173 -43.9172 -43.9163 -43.9161  -5.7653  -5.6073  -4.4232  -4.1716
    -3.0416  -2.6931  -2.1518  -2.0186  -1.8774  -1.7372  -0.9376  -0.7413
    -0.3867  -0.2582  -0.0216   0.0362   5.3859   5.4569   5.5945   5.8453

          k =-0.2000 0.2455-0.9819 ( 14451 PWs)   bands (ev):

   -43.9172 -43.9171 -43.9163 -43.9162  -5.1287  -4.9905  -4.2114  -4.0122
    -3.0244  -2.9032  -2.4099  -2.2857  -2.0721  -2.0368  -1.6036  -1.3090
    -1.0488  -0.8134  -0.4665  -0.2849   5.1074   5.5804   5.7231   5.7628

          k =-0.2000 0.2455 0.5949 ( 14461 PWs)   bands (ev):

   -43.9179 -43.9178 -43.9156 -43.9156  -5.7259  -5.5600  -4.3380  -4.0682
    -3.1716  -2.8351  -2.1018  -1.9799  -1.8386  -1.6613  -0.9815  -0.8552
    -0.6253  -0.3559   0.0604   0.1146   5.0684   5.0801   5.6943   5.9179

          k =-0.2000 0.2455 0.2007 ( 14488 PWs)   bands (ev):

   -43.9182 -43.9180 -43.9154 -43.9152  -6.5029  -6.2788  -4.5471  -3.9444
    -2.7225  -2.5362  -1.8582  -1.6659  -1.3078  -0.7780  -0.5908  -0.3792
    -0.2021  -0.0734   0.5341   0.5458   4.8695   4.8923   5.7497   5.7765

          k =-0.4000 0.1228-0.3870 ( 14465 PWs)   bands (ev):

   -43.9175 -43.9170 -43.9165 -43.9160  -6.0936  -5.6550  -4.8153  -4.0829
    -3.5221  -2.9164  -2.2251  -1.3837  -1.3227  -0.9148  -0.5692  -0.5011
    -0.1508  -0.0055   0.0874   0.2206   4.9079   5.1616   5.7702   5.8589

          k =-0.4000 0.1228-0.7812 ( 14472 PWs)   bands (ev):

   -43.9174 -43.9170 -43.9165 -43.9160  -5.8589  -5.4146  -4.6449  -3.9115
    -3.3409  -2.7382  -2.1171  -2.0928  -1.7264  -1.2333  -1.1918  -0.7570
    -0.7328  -0.1802   0.0222   0.0830   5.2659   5.3918   5.5450   6.1698

          k =-0.4000 0.1228-1.1754 ( 14466 PWs)   bands (ev):

   -43.9179 -43.9177 -43.9157 -43.9155  -5.8141  -5.3694  -4.5623  -3.8366
    -3.3981  -2.8174  -2.1474  -2.0771  -1.7444  -1.3208  -1.1001  -0.7791
    -0.5747  -0.4001  -0.1469   0.0580   5.1652   5.3806   5.8212   6.0074

          k =-0.4000 0.1228 0.4014 ( 14467 PWs)   bands (ev):

   -43.9182 -43.9180 -43.9155 -43.9153  -6.0404  -5.5882  -4.7159  -3.9541
    -3.5916  -2.9585  -2.2110  -1.4058  -1.3169  -0.9851  -0.7069  -0.5159
    -0.2445  -0.0633  -0.0057   0.1506   4.7456   4.9648   5.6246   5.7719

          k =-0.4000 0.1228 0.0072 ( 14484 PWs)   bands (ev):

   -43.9181 -43.9176 -43.9159 -43.9154  -6.4247  -5.7711  -4.9317  -3.2770
    -2.6954  -2.6543  -2.2666  -2.0932  -1.7294  -1.3830  -0.5193  -0.3939
    -0.3202   0.1728   0.1837   0.3344   5.4532   5.5724   5.8964   5.9093

          k =-0.4000 0.2455-0.3870 ( 14465 PWs)   bands (ev):

   -43.9174 -43.9172 -43.9162 -43.9161  -5.9908  -5.8330  -4.6000  -4.3457
    -3.2398  -2.8844  -2.2750  -1.8390  -1.2424  -1.0946  -0.3554  -0.2107
    -0.2093  -0.0056   0.1568   0.1949   5.0245   5.1217   5.7934   5.9017

          k =-0.4000 0.2455-0.7812 ( 14453 PWs)   bands (ev):

   -43.9173 -43.9172 -43.9163 -43.9161  -5.7564  -5.5978  -4.4215  -4.1667
    -3.0792  -2.7462  -2.1077  -2.0182  -1.8700  -1.6856  -1.0374  -0.8816
    -0.4460  -0.1655   0.0592   0.1302   5.2839   5.2951   5.6921   5.9764

          k =-0.4000 0.2455-1.1754 ( 14475 PWs)   bands (ev):

   -43.9179 -43.9178 -43.9156 -43.9156  -5.7106  -5.5512  -4.3498  -4.1002
    -3.1215  -2.7822  -2.1638  -2.0516  -1.8982  -1.7673  -0.8760  -0.6421
    -0.5115  -0.4156  -0.0720   0.0143   5.3204   5.3725   5.6867   5.7851

          k =-0.4000 0.2455 0.4014 ( 14466 PWs)   bands (ev):

   -43.9181 -43.9181 -43.9154 -43.9153  -5.9348  -5.7723  -4.4983  -4.2380
    -3.3002  -2.9359  -2.2514  -1.8079  -1.3063  -1.1579  -0.3770  -0.3568
    -0.2401  -0.1580   0.0965   0.1617   4.8286   4.9169   5.6294   5.7138

          k =-0.4000 0.2455 0.0072 ( 14478 PWs)   bands (ev):

   -43.9180 -43.9178 -43.9157 -43.9155  -6.2926  -6.0738  -4.4132  -3.8497
    -2.5791  -2.5336  -2.3978  -2.3475  -1.2887  -0.9815  -0.8046  -0.6042
    -0.1982   0.0958   0.2192   0.2526   5.5873   5.7808   5.7982   5.8494

     the Fermi energy is     3.6345 ev

!    total energy              =    -234.80495728 Ry
     estimated scf accuracy    <          2.9E-09 Ry
     smearing contrib. (-TS)   =       0.00000000 Ry
     internal energy E=F+TS    =    -234.80495728 Ry

     The total energy is F=E-TS. E is the sum of the following terms:
     one-electron contribution =     -24.27594763 Ry
     hartree contribution      =      17.56880750 Ry
     xc contribution           =     -35.35829992 Ry
     ewald contribution        =     -54.00812715 Ry
     one-center paw contrib.   =    -138.73139009 Ry

     convergence has been achieved in  10 iterations

     Forces acting on atoms (cartesian axes, Ry/au):

     atom    1 type  1   force =    -0.00000007   -0.00298448   -0.00000002
     atom    2 type  1   force =     0.00000001    0.00298528    0.00000006
     atom    3 type  1   force =    -0.00000001   -0.00298528   -0.00000006
     atom    4 type  1   force =     0.00000007    0.00298448    0.00000002
     atom    5 type  2   force =    -0.00000002    0.00167630    0.00000020
     atom    6 type  2   force =     0.00000005   -0.00167043   -0.00000001
     atom    7 type  2   force =    -0.00000005    0.00167043    0.00000001
     atom    8 type  2   force =     0.00000002   -0.00167630   -0.00000020
     atom    9 type  3   force =     0.00033379    0.00078122   -0.00092728
     atom   10 type  3   force =    -0.00033392   -0.00078035    0.00092738
     atom   11 type  3   force =     0.00033386   -0.00078030   -0.00092725
     atom   12 type  3   force =    -0.00033382    0.00078120    0.00092718
     atom   13 type  3   force =     0.00019576   -0.00085995    0.00026968
     atom   14 type  3   force =    -0.00019542    0.00085981   -0.00026960
     atom   15 type  3   force =     0.00019533    0.00085981    0.00026963
     atom   16 type  3   force =    -0.00019576   -0.00085988   -0.00026967
     atom   17 type  3   force =     0.00033392    0.00078035   -0.00092738
     atom   18 type  3   force =    -0.00033379   -0.00078122    0.00092728
     atom   19 type  3   force =     0.00033382   -0.00078120   -0.00092718
     atom   20 type  3   force =    -0.00033386    0.00078030    0.00092725
     atom   21 type  3   force =     0.00019542   -0.00085981    0.00026960
     atom   22 type  3   force =    -0.00019576    0.00085995   -0.00026968
     atom   23 type  3   force =     0.00019576    0.00085988    0.00026967
     atom   24 type  3   force =    -0.00019533   -0.00085981   -0.00026963

     Total force =     0.008142     Total SCF correction =     0.000018


     Computing stress (Cartesian axis) and pressure

          total   stress  (Ry/bohr**3)                   (kbar)     P=       -1.06
   0.00002543   0.00000000  -0.00000229            3.74        0.00       -0.34
   0.00000000  -0.00002550   0.00000000            0.00       -3.75        0.00
  -0.00000229   0.00000000  -0.00002152           -0.34        0.00       -3.17


     BFGS Geometry Optimization
     Energy error            =      0.0E+00 Ry
     Gradient error          =      3.0E-03 Ry/Bohr
     Cell gradient error     =      3.8E+00 kbar

     number of scf cycles    =   1
     number of bfgs steps    =   0

     enthalpy           new  =    -234.8049572844 Ry

     new trust radius        =       0.0048826978 bohr
     new conv_thr            =       0.0000000100 Ry

     new unit-cell volume =   1461.70993 a.u.^3 (   216.60306 Ang^3 )
     density =      1.16461 g/cm^3

CELL_PARAMETERS (alat= 12.09526765)
   1.000635814   0.000000012  -0.000057229
   0.000000019   1.627970554   0.000000032
  -0.491233330   0.000000004   0.507126402

ATOMIC_POSITIONS (crystal)
Al            0.4999999990        0.3764892790        0.7499999611
Al            0.0000000009        0.1235107041        0.2500000309
Al           -0.0000000009        0.8764892959        0.7499999691
Al            0.5000000010        0.6235107210        0.2500000389
Li           -0.0000001500        0.3634868690        0.7499995826
Li            0.5000001083        0.1365136019        0.2500003871
Li            0.4999998917        0.8634863981        0.7499996129
Li            0.0000001500        0.6365131310        0.2500004174
H             0.6722765395        0.2923463901        0.1761958533
H             0.8277235982        0.2076538756        0.8238043299
H             0.1722763829        0.2076538540        0.6761956654
H             0.3277234900        0.2923464197        0.3238041385
H             0.2528338472        0.0443746928        0.3181401671
H             0.2471664460        0.4556255461        0.6818600761
H             0.7528335828        0.4556255366        0.8181399060
H             0.7471661313        0.0443746687        0.1818598315
H             0.1722764018        0.7923461244        0.1761956701
H             0.3277234605        0.7076536099        0.8238041467
H             0.6722765100        0.7076535803        0.6761958615
H             0.8277236171        0.7923461460        0.3238043346
H             0.7528335540        0.5443744539        0.3181399239
H             0.7471661528        0.9556253072        0.6818598329
H             0.2528338687        0.9556253313        0.8181401685
H             0.2471664172        0.5443744634        0.1818600940



     Writing config-only to output data dir ./LiAlH4.save/
     NEW-OLD atomic charge density approx. for the potential
     extrapolated charge   39.97937, renormalised to   40.00000

     total cpu time spent up to now is       33.3 secs

     Self-consistent Calculation

     iteration #  1     ecut=    70.00 Ry     beta= 0.70
     Davidson diagonalization with overlap
     ethr =  1.00E-06,  avg # of iterations =  3.0

     Threshold (ethr) on eigenvalues was too large:
     Diagonalizing with lowered threshold

     Davidson diagonalization with overlap
     ethr =  1.01E-08,  avg # of iterations =  5.0

     total cpu time spent up to now is       38.5 secs

     total energy              =    -234.80506218 Ry
     estimated scf accuracy    <       0.00000532 Ry

     iteration #  2     ecut=    70.00 Ry     beta= 0.70
     Davidson diagonalization with overlap
     ethr =  1.33E-08,  avg # of iterations =  2.9

     total cpu time spent up to now is       40.9 secs

     total energy              =    -234.80506345 Ry
     estimated scf accuracy    <       0.00000041 Ry

     iteration #  3     ecut=    70.00 Ry     beta= 0.70
     Davidson diagonalization with overlap
     ethr =  1.03E-09,  avg # of iterations =  2.2

     total cpu time spent up to now is       43.0 secs

     total energy              =    -234.80506351 Ry
     estimated scf accuracy    <       0.00000003 Ry

     iteration #  4     ecut=    70.00 Ry     beta= 0.70
     Davidson diagonalization with overlap
     ethr =  7.43E-11,  avg # of iterations =  3.7

     total cpu time spent up to now is       45.6 secs

     End of self-consistent calculation

          k = 0.0000 0.0000 0.0000 ( 14493 PWs)   bands (ev):

   -43.9158 -43.9150 -43.9131 -43.9123  -6.9048  -5.7866  -5.7406  -2.8497
    -2.3827  -2.2258  -2.1350  -1.3730  -1.2936  -1.1626  -0.9706   0.1710
     0.2707   0.3326   0.4072   0.6967   4.6649   4.9562   4.9650   5.3407

          k = 0.0000-0.0000 0.3944 ( 14461 PWs)   bands (ev):

   -43.9155 -43.9148 -43.9133 -43.9126  -6.4772  -5.4078  -5.3815  -2.8722
    -2.7074  -2.6810  -2.4399  -1.8773  -1.7377  -1.6559  -0.7209  -0.2000
    -0.0846   0.1765   0.1978   0.2203   5.1546   5.4903   5.8567   5.9368

          k = 0.0000-0.0000 0.7888 ( 14425 PWs)   bands (ev):

   -43.9145 -43.9143 -43.9137 -43.9135  -5.2695  -4.6392  -4.5942  -3.7741
    -3.0219  -2.8401  -2.5075  -2.4748  -2.1466  -1.7548  -1.5724  -1.4331
    -1.2528  -0.5150  -0.4461  -0.1877   4.8146   4.9620   5.0047   5.6371

          k =-0.0000 0.1229-0.0000 ( 14495 PWs)   bands (ev):

   -43.9158 -43.9151 -43.9130 -43.9124  -6.8586  -6.1712  -5.2725  -3.3884
    -2.1847  -2.0946  -1.8364  -1.5977  -1.5262  -0.8544  -0.7347  -0.0669
     0.1690   0.2376   0.5164   0.6905   4.6433   4.8553   4.9973   5.2401

          k = 0.0000 0.1229 0.3944 ( 14469 PWs)   bands (ev):

   -43.9154 -43.9149 -43.9132 -43.9127  -6.4330  -5.7783  -4.9377  -3.2758
    -2.6656  -2.6416  -2.2604  -2.0527  -1.7604  -1.3042  -0.5740  -0.4141
    -0.1907   0.1386   0.2155   0.2713   5.1908   5.6119   5.7721   5.9377

          k = 0.0000 0.1229 0.7888 ( 14439 PWs)   bands (ev):

   -43.9145 -43.9143 -43.9137 -43.9135  -5.2383  -4.8222  -4.4042  -3.8388
    -3.0468  -2.7008  -2.6617  -2.4399  -1.9255  -1.8239  -1.7975  -1.2592
    -1.2192  -0.5983  -0.4915  -0.2125   4.8625   5.1453   5.1822   5.9052

          k =-0.0000 0.2457-0.0000 ( 14490 PWs)   bands (ev):

   -43.9156 -43.9154 -43.9128 -43.9125  -6.7202  -6.4905  -4.7049  -4.0697
    -2.0625  -1.9747  -1.8633  -1.7805  -1.1460  -0.5356  -0.4644  -0.3668
    -0.1005  -0.0179   0.6157   0.6677   4.6378   4.7160   5.0267   5.1045

          k = 0.0000 0.2457 0.3944 ( 14455 PWs)   bands (ev):

   -43.9153 -43.9151 -43.9130 -43.9128  -6.3006  -6.0815  -4.4182  -3.8530
    -2.5434  -2.5255  -2.3705  -2.3284  -1.3183  -0.8896  -0.8301  -0.4946
    -0.2750  -0.0094   0.2590   0.2945   5.3241   5.5441   5.8534   5.8647

          k = 0.0000 0.2457 0.7888 ( 14450 PWs)   bands (ev):

   -43.9145 -43.9144 -43.9136 -43.9135  -5.1471  -5.0039  -4.1951  -3.9972
    -3.0091  -2.8747  -2.4216  -2.2922  -2.0823  -2.0552  -1.5565  -1.2741
    -1.0578  -0.8117  -0.4668  -0.3163   5.1244   5.5031   5.6761   5.8731

          k = 0.1999-0.0000 0.1936 ( 14496 PWs)   bands (ev):

   -43.9156 -43.9148 -43.9133 -43.9125  -6.6966  -5.6121  -5.5660  -2.9281
    -2.8727  -2.6397  -1.9693  -1.9336  -1.1453  -1.1339  -0.8546  -0.2001
     0.1671   0.3939   0.3998   0.5087   4.8933   5.1800   5.5159   5.5957

          k = 0.1999-0.0000 0.5880 ( 14451 PWs)   bands (ev):

   -43.9148 -43.9141 -43.9139 -43.9133  -5.9017  -5.3206  -4.7572  -3.7889
    -3.4089  -2.8803  -2.1432  -1.8284  -1.6470  -1.2249  -0.9733  -0.9216
    -0.6442  -0.4705  -0.0656   0.1529   5.2519   5.4480   5.7459   5.9436

          k = 0.1999-0.0000 0.9824 ( 14451 PWs)   bands (ev):

   -43.9145 -43.9143 -43.9137 -43.9135  -5.2487  -4.6264  -4.6133  -3.7787
    -2.9707  -2.8905  -2.5329  -2.5180  -2.2020  -1.7225  -1.5534  -1.3827
    -1.2070  -0.5467  -0.5024  -0.1499   4.8020   5.0143   5.0457   5.5907

          k = 0.1998 0.0000-0.5952 ( 14469 PWs)   bands (ev):

   -43.9152 -43.9150 -43.9130 -43.9128  -5.8689  -5.2529  -4.6981  -3.6195
    -3.5249  -2.9500  -2.1150  -1.8420  -1.8251  -1.1222  -1.0856  -0.8709
    -0.6840  -0.4468  -0.0636   0.0021   5.2228   5.3607   5.3649   5.7897

          k = 0.1999 0.0000-0.2008 ( 14475 PWs)   bands (ev):

   -43.9157 -43.9151 -43.9130 -43.9124  -6.6837  -5.6321  -5.5038  -2.8854
    -2.7156  -2.6283  -2.0154  -2.0031  -1.2028  -1.1366  -1.0284  -0.1022
     0.0607   0.2103   0.5099   0.5308   4.8821   5.0774   5.5224   5.6810

          k = 0.1999 0.1229 0.1936 ( 14484 PWs)   bands (ev):

   -43.9155 -43.9149 -43.9132 -43.9126  -6.6515  -5.9829  -5.1178  -3.3695
    -2.8861  -2.4226  -1.8945  -1.8523  -1.3436  -0.9171  -0.6235  -0.4098
     0.1226   0.2693   0.4668   0.5141   4.9010   5.0747   5.5598   5.7420

          k = 0.1999 0.1229 0.5880 ( 14430 PWs)   bands (ev):

   -43.9147 -43.9143 -43.9138 -43.9133  -5.8665  -5.4234  -4.6459  -3.9228
    -3.3099  -2.7213  -2.1114  -2.0661  -1.7256  -1.2764  -1.1204  -0.7146
    -0.5656  -0.4190  -0.0436   0.1320   5.2637   5.3944   5.7952   6.0925

          k = 0.1999 0.1229 0.9824 ( 14438 PWs)   bands (ev):

   -43.9145 -43.9143 -43.9137 -43.9135  -5.2183  -4.8158  -4.4159  -3.8471
    -3.0396  -2.7073  -2.6980  -2.4578  -1.9903  -1.7816  -1.7713  -1.2386
    -1.1863  -0.5915  -0.5601  -0.1740   4.8456   5.1968   5.2315   5.8579

          k = 0.1998 0.1229-0.5952 ( 14454 PWs)   bands (ev):

   -43.9152 -43.9150 -43.9130 -43.9128  -5.8326  -5.3667  -4.5730  -3.7858
    -3.4312  -2.7867  -2.1440  -2.0804  -1.7252  -1.1776  -1.0862  -0.9276
    -0.7372  -0.2705  -0.0685   0.0546   5.1573   5.2356   5.4045   5.9931

          k = 0.1999 0.1229-0.2008 ( 14478 PWs)   bands (ev):

   -43.9157 -43.9152 -43.9129 -43.9124  -6.6384  -5.9689  -5.0880  -3.3015
    -2.8441  -2.3600  -1.9754  -1.8423  -1.4033  -0.9950  -0.7272  -0.3322
     0.0358   0.1351   0.5181   0.5433   4.8792   4.9873   5.6819   5.7205

          k = 0.1999 0.2457 0.1936 ( 14467 PWs)   bands (ev):

   -43.9153 -43.9151 -43.9130 -43.9128  -6.5166  -6.2929  -4.5792  -3.9872
    -2.7631  -2.5759  -1.7788  -1.5948  -1.3623  -0.8476  -0.4964  -0.2876
    -0.1052   0.0257   0.5148   0.5231   4.9179   4.9632   5.6295   5.7047

          k = 0.1999 0.2457 0.5880 ( 14445 PWs)   bands (ev):

   -43.9146 -43.9145 -43.9136 -43.9134  -5.7640  -5.6055  -4.4258  -4.1741
    -3.0372  -2.6870  -2.1488  -2.0205  -1.8777  -1.7328  -0.9405  -0.7430
    -0.3847  -0.2518  -0.0128   0.0413   5.3977   5.4592   5.6051   5.8476

          k = 0.1999 0.2457 0.9824 ( 14451 PWs)   bands (ev):

   -43.9145 -43.9144 -43.9136 -43.9135  -5.1297  -4.9910  -4.2101  -4.0109
    -3.0233  -2.9020  -2.4070  -2.2877  -2.0685  -2.0400  -1.5976  -1.3037
    -1.0444  -0.8077  -0.4646  -0.2835   5.1097   5.5880   5.7356   5.7715

          k = 0.1998 0.2457-0.5952 ( 14461 PWs)   bands (ev):

   -43.9152 -43.9151 -43.9129 -43.9129  -5.7264  -5.5609  -4.3345  -4.0652
    -3.1719  -2.8357  -2.0991  -1.9816  -1.8394  -1.6589  -0.9747  -0.8484
    -0.6264  -0.3558   0.0667   0.1209   5.0769   5.0913   5.6949   5.9242

          k = 0.1999 0.2457-0.2008 ( 14488 PWs)   bands (ev):

   -43.9155 -43.9153 -43.9127 -43.9125  -6.5031  -6.2789  -4.5441  -3.9408
    -2.7232  -2.5362  -1.8567  -1.6637  -1.3066  -0.7758  -0.5873  -0.3763
    -0.1996  -0.0706   0.5373   0.5515   4.8729   4.8954   5.7498   5.7777

          k = 0.3998-0.0000 0.3872 ( 14463 PWs)   bands (ev):

   -43.9149 -43.9141 -43.9140 -43.9132  -6.1284  -5.5549  -4.9234  -3.9395
    -3.6219  -3.0804  -2.0141  -1.3766  -1.1106  -0.7948  -0.7587  -0.6286
    -0.2478   0.0372   0.0553   0.2214   4.8548   5.1734   5.8095   5.8939

          k = 0.3998-0.0000 0.7816 ( 14488 PWs)   bands (ev):

   -43.9148 -43.9141 -43.9139 -43.9133  -5.8942  -5.3064  -4.7631  -3.7764
    -3.4329  -2.8809  -2.1499  -1.8148  -1.7505  -1.2661  -0.9967  -0.9177
    -0.5386  -0.4751   0.0431   0.0881   5.2534   5.5106   5.5756   5.8814

          k = 0.3998-0.0000 1.1760 ( 14463 PWs)   bands (ev):

   -43.9152 -43.9150 -43.9130 -43.9128  -5.8512  -5.2719  -4.6619  -3.6742
    -3.5009  -2.9907  -2.1784  -1.7615  -1.7521  -1.2278  -0.9833  -0.9384
    -0.8108  -0.2720  -0.1841   0.0396   5.1708   5.4170   5.7509   5.8784

          k = 0.3997 0.0000-0.4016 ( 14471 PWs)   bands (ev):

   -43.9155 -43.9153 -43.9128 -43.9125  -6.0779  -5.4917  -4.8149  -3.7678
    -3.6993  -3.1589  -1.9810  -1.4362  -1.0394  -0.9726  -0.8386  -0.5995
    -0.3733  -0.0563   0.0355   0.1034   4.7120   4.9809   5.7521   5.7603

          k = 0.3997-0.0000-0.0072 ( 14490 PWs)   bands (ev):

   -43.9155 -43.9148 -43.9133 -43.9126  -6.4695  -5.4095  -5.3648  -2.8847
    -2.7328  -2.6961  -2.4130  -1.8487  -1.7626  -1.7550  -0.6642  -0.2114
    -0.1719   0.0988   0.1642   0.4021   5.4309   5.4493   5.7737   6.1701

          k = 0.3998 0.1229 0.3872 ( 14465 PWs)   bands (ev):

   -43.9148 -43.9143 -43.9138 -43.9133  -6.0929  -5.6523  -4.8184  -4.0853
    -3.5186  -2.9100  -2.2211  -1.3783  -1.3254  -0.9158  -0.5648  -0.5031
    -0.1477  -0.0045   0.0926   0.2270   4.9064   5.1605   5.7734   5.8596

          k = 0.3998 0.1229 0.7816 ( 14472 PWs)   bands (ev):

   -43.9147 -43.9143 -43.9138 -43.9133  -5.8589  -5.4122  -4.6479  -3.9130
    -3.3372  -2.7309  -2.1156  -2.0909  -1.7243  -1.2276  -1.1951  -0.7489
    -0.7362  -0.1801   0.0303   0.0841   5.2764   5.3910   5.5454   6.1715

          k = 0.3998 0.1229 1.1760 ( 14466 PWs)   bands (ev):

   -43.9152 -43.9150 -43.9130 -43.9128  -5.8157  -5.3717  -4.5572  -3.8311
    -3.3991  -2.8191  -2.1448  -2.0757  -1.7438  -1.3188  -1.0926  -0.7736
    -0.5766  -0.3936  -0.1479   0.0619   5.1776   5.3804   5.8220   6.0135

          k = 0.3997 0.1229-0.4016 ( 14467 PWs)   bands (ev):

   -43.9155 -43.9153 -43.9128 -43.9126  -6.0416  -5.5907  -4.7103  -3.9493
    -3.5924  -2.9603  -2.2068  -1.4063  -1.3120  -0.9852  -0.7046  -0.5085
    -0.2413  -0.0650  -0.0053   0.1587   4.7493   4.9679   5.6337   5.7764

          k = 0.3997 0.1229-0.0072 ( 14484 PWs)   bands (ev):

   -43.9154 -43.9149 -43.9132 -43.9127  -6.4253  -5.7710  -4.9299  -3.2735
    -2.6937  -2.6542  -2.2630  -2.0919  -1.7297  -1.3798  -0.5098  -0.3915
    -0.3153   0.1691   0.1791   0.3434   5.4536   5.5765   5.9062   5.9094

          k = 0.3998 0.2457 0.3872 ( 14465 PWs)   bands (ev):

   -43.9147 -43.9145 -43.9136 -43.9134  -5.9897  -5.8313  -4.6023  -4.3477
    -3.2354  -2.8783  -2.2718  -1.8344  -1.2449  -1.0967  -0.3608  -0.2141
    -0.1999   0.0068   0.1610   0.1976   5.0227   5.1202   5.7955   5.9022

          k = 0.3998 0.2457 0.7816 ( 14453 PWs)   bands (ev):

   -43.9146 -43.9145 -43.9136 -43.9134  -5.7560  -5.5967  -4.4233  -4.1680
    -3.0749  -2.7400  -2.1052  -2.0166  -1.8683  -1.6813  -1.0411  -0.8854
    -0.4378  -0.1573   0.0604   0.1317   5.2842   5.2986   5.6997   5.9827

          k = 0.3998 0.2457 1.1760 ( 14475 PWs)   bands (ev):

   -43.9152 -43.9151 -43.9129 -43.9129  -5.7123  -5.5530  -4.3455  -4.0958
    -3.1220  -2.7829  -2.1615  -2.0488  -1.8966  -1.7660  -0.8713  -0.6388
    -0.5077  -0.4134  -0.0705   0.0181   5.3307   5.3738   5.6892   5.7935

          k = 0.3997 0.2457-0.4016 ( 14466 PWs)   bands (ev):

   -43.9154 -43.9154 -43.9127 -43.9126  -5.9361  -5.7739  -4.4941  -4.2341
    -3.3002  -2.9358  -2.2485  -1.8053  -1.3049  -1.1566  -0.3739  -0.3544
    -0.2330  -0.1630   0.1005   0.1694   4.8332   4.9212   5.6390   5.7225

          k = 0.3997 0.2457-0.0072 ( 14478 PWs)   bands (ev):

   -43.9153 -43.9151 -43.9130 -43.9128  -6.2930  -6.0740  -4.4110  -3.8469
    -2.5773  -2.5332  -2.3955  -2.3467  -1.2874  -0.9777  -0.8028  -0.5999
    -0.1887   0.1033   0.2151   0.2508   5.5859   5.7847   5.7954   5.8508

          k =-0.0000 0.1229-0.3944 ( 14469 PWs)   bands (ev):

   -43.9154 -43.9149 -43.9132 -43.9127  -6.4330  -5.7783  -4.9377  -3.2758
    -2.6656  -2.6416  -2.2604  -2.0527  -1.7604  -1.3042  -0.5740  -0.4141
    -0.1907   0.1386   0.2155   0.2713   5.1908   5.6119   5.7721   5.9372

          k =-0.0000 0.1229-0.7888 ( 14439 PWs)   bands (ev):

   -43.9145 -43.9143 -43.9137 -43.9135  -5.2383  -4.8222  -4.4042  -3.8388
    -3.0468  -2.7008  -2.6617  -2.4399  -1.9255  -1.8239  -1.7975  -1.2592
    -1.2192  -0.5983  -0.4915  -0.2125   4.8625   5.1453   5.1822   5.9052

          k =-0.0000 0.2457-0.3944 ( 14455 PWs)   bands (ev):

   -43.9153 -43.9151 -43.9130 -43.9128  -6.3006  -6.0815  -4.4182  -3.8530
    -2.5434  -2.5255  -2.3705  -2.3284  -1.3183  -0.8896  -0.8301  -0.4946
    -0.2750  -0.0094   0.2590   0.2945   5.3241   5.5441   5.8535   5.8648

          k =-0.0000 0.2457-0.7888 ( 14450 PWs)   bands (ev):

   -43.9145 -43.9144 -43.9136 -43.9135  -5.1471  -5.0039  -4.1951  -3.9972
    -3.0091  -2.8747  -2.4216  -2.2922  -2.0823  -2.0552  -1.5565  -1.2741
    -1.0578  -0.8117  -0.4668  -0.3163   5.1244   5.5031   5.6761   5.8731

          k =-0.1999 0.1229-0.1936 ( 14484 PWs)   bands (ev):

   -43.9155 -43.9149 -43.9132 -43.9126  -6.6515  -5.9829  -5.1178  -3.3695
    -2.8861  -2.4226  -1.8945  -1.8523  -1.3436  -0.9171  -0.6235  -0.4098
     0.1226   0.2693   0.4668   0.5141   4.9010   5.0747   5.5597   5.7419

          k =-0.1999 0.1229-0.5880 ( 14430 PWs)   bands (ev):

   -43.9147 -43.9143 -43.9138 -43.9133  -5.8665  -5.4234  -4.6459  -3.9228
    -3.3099  -2.7213  -2.1114  -2.0661  -1.7256  -1.2764  -1.1204  -0.7146
    -0.5656  -0.4190  -0.0436   0.1320   5.2637   5.3943   5.7953   6.0926

          k =-0.1999 0.1229-0.9824 ( 14438 PWs)   bands (ev):

   -43.9145 -43.9143 -43.9137 -43.9135  -5.2183  -4.8158  -4.4159  -3.8471
    -3.0396  -2.7073  -2.6980  -2.4578  -1.9903  -1.7816  -1.7713  -1.2386
    -1.1863  -0.5915  -0.5601  -0.1740   4.8456   5.1968   5.2315   5.8579

          k =-0.1998 0.1229 0.5952 ( 14454 PWs)   bands (ev):

   -43.9152 -43.9150 -43.9130 -43.9128  -5.8326  -5.3667  -4.5730  -3.7858
    -3.4312  -2.7867  -2.1440  -2.0804  -1.7252  -1.1776  -1.0862  -0.9276
    -0.7372  -0.2705  -0.0685   0.0546   5.1573   5.2355   5.4045   5.9929

          k =-0.1999 0.1229 0.2008 ( 14478 PWs)   bands (ev):

   -43.9157 -43.9152 -43.9129 -43.9124  -6.6384  -5.9689  -5.0880  -3.3015
    -2.8441  -2.3600  -1.9754  -1.8423  -1.4033  -0.9950  -0.7272  -0.3322
     0.0358   0.1351   0.5181   0.5433   4.8792   4.9873   5.6820   5.7212

          k =-0.1999 0.2457-0.1936 ( 14467 PWs)   bands (ev):

   -43.9153 -43.9151 -43.9130 -43.9128  -6.5166  -6.2929  -4.5792  -3.9872
    -2.7631  -2.5759  -1.7788  -1.5948  -1.3623  -0.8476  -0.4964  -0.2876
    -0.1052   0.0257   0.5148   0.5231   4.9179   4.9632   5.6295   5.7048

          k =-0.1999 0.2457-0.5880 ( 14445 PWs)   bands (ev):

   -43.9146 -43.9145 -43.9136 -43.9134  -5.7640  -5.6055  -4.4258  -4.1741
    -3.0372  -2.6870  -2.1488  -2.0205  -1.8777  -1.7328  -0.9405  -0.7430
    -0.3847  -0.2518  -0.0128   0.0413   5.3977   5.4592   5.6051   5.8476

          k =-0.1999 0.2457-0.9824 ( 14451 PWs)   bands (ev):

   -43.9145 -43.9144 -43.9136 -43.9135  -5.1297  -4.9910  -4.2101  -4.0109
    -3.0233  -2.9020  -2.4070  -2.2877  -2.0685  -2.0400  -1.5976  -1.3037
    -1.0444  -0.8077  -0.4646  -0.2835   5.1097   5.5880   5.7356   5.7715

          k =-0.1998 0.2457 0.5952 ( 14461 PWs)   bands (ev):

   -43.9152 -43.9151 -43.9129 -43.9129  -5.7264  -5.5609  -4.3345  -4.0652
    -3.1719  -2.8357  -2.0991  -1.9816  -1.8394  -1.6589  -0.9747  -0.8484
    -0.6264  -0.3558   0.0667   0.1209   5.0768   5.0913   5.6954   5.9234

          k =-0.1999 0.2457 0.2008 ( 14488 PWs)   bands (ev):

   -43.9155 -43.9153 -43.9127 -43.9125  -6.5031  -6.2789  -4.5441  -3.9408
    -2.7232  -2.5362  -1.8567  -1.6637  -1.3066  -0.7758  -0.5873  -0.3763
    -0.1996  -0.0706   0.5373   0.5515   4.8729   4.8954   5.7498   5.7778

          k =-0.3998 0.1229-0.3872 ( 14465 PWs)   bands (ev):

   -43.9148 -43.9143 -43.9138 -43.9133  -6.0929  -5.6523  -4.8184  -4.0853
    -3.5186  -2.9100  -2.2211  -1.3783  -1.3254  -0.9158  -0.5648  -0.5031
    -0.1477  -0.0045   0.0926   0.2270   4.9064   5.1605   5.7735   5.8598

          k =-0.3998 0.1229-0.7816 ( 14472 PWs)   bands (ev):

   -43.9147 -43.9143 -43.9138 -43.9133  -5.8589  -5.4122  -4.6479  -3.9130
    -3.3372  -2.7309  -2.1156  -2.0909  -1.7243  -1.2276  -1.1951  -0.7489
    -0.7362  -0.1801   0.0303   0.0841   5.2764   5.3910   5.5454   6.1716

          k =-0.3998 0.1229-1.1760 ( 14466 PWs)   bands (ev):

   -43.9152 -43.9150 -43.9130 -43.9128  -5.8157  -5.3717  -4.5572  -3.8311
    -3.3991  -2.8191  -2.1448  -2.0757  -1.7438  -1.3188  -1.0926  -0.7736
    -0.5766  -0.3936  -0.1479   0.0619   5.1776   5.3804   5.8218   6.0133

          k =-0.3997 0.1229 0.4016 ( 14467 PWs)   bands (ev):

   -43.9155 -43.9153 -43.9128 -43.9126  -6.0416  -5.5907  -4.7103  -3.9493
    -3.5924  -2.9603  -2.2068  -1.4063  -1.3120  -0.9852  -0.7046  -0.5085
    -0.2413  -0.0650  -0.0053   0.1587   4.7493   4.9679   5.6337   5.7764

          k =-0.3997 0.1229 0.0072 ( 14484 PWs)   bands (ev):

   -43.9154 -43.9149 -43.9132 -43.9127  -6.4253  -5.7710  -4.9299  -3.2735
    -2.6937  -2.6542  -2.2630  -2.0919  -1.7297  -1.3798  -0.5098  -0.3915
    -0.3153   0.1691   0.1791   0.3434   5.4536   5.5765   5.9061   5.9095

          k =-0.3998 0.2457-0.3872 ( 14465 PWs)   bands (ev):

   -43.9147 -43.9145 -43.9136 -43.9134  -5.9897  -5.8313  -4.6023  -4.3477
    -3.2354  -2.8783  -2.2718  -1.8344  -1.2449  -1.0967  -0.3608  -0.2141
    -0.1999   0.0068   0.1611   0.1976   5.0227   5.1202   5.7959   5.9024

          k =-0.3998 0.2457-0.7816 ( 14453 PWs)   bands (ev):

   -43.9146 -43.9145 -43.9136 -43.9134  -5.7560  -5.5967  -4.4233  -4.1680
    -3.0749  -2.7400  -2.1052  -2.0166  -1.8683  -1.6813  -1.0411  -0.8854
    -0.4378  -0.1573   0.0604   0.1317   5.2842   5.2986   5.6999   5.9825

          k =-0.3998 0.2457-1.1760 ( 14475 PWs)   bands (ev):

   -43.9152 -43.9151 -43.9129 -43.9129  -5.7123  -5.5530  -4.3455  -4.0958
    -3.1220  -2.7829  -2.1615  -2.0488  -1.8966  -1.7660  -0.8713  -0.6388
    -0.5077  -0.4134  -0.0705   0.0181   5.3307   5.3738   5.6892   5.7935

          k =-0.3997 0.2457 0.4016 ( 14466 PWs)   bands (ev):

   -43.9154 -43.9154 -43.9127 -43.9126  -5.9361  -5.7739  -4.4941  -4.2341
    -3.3002  -2.9358  -2.2485  -1.8053  -1.3049  -1.1566  -0.3739  -0.3545
    -0.2330  -0.1630   0.1005   0.1694   4.8332   4.9212   5.6391   5.7224

          k =-0.3997 0.2457 0.0072 ( 14478 PWs)   bands (ev):

   -43.9153 -43.9151 -43.9130 -43.9128  -6.2930  -6.0740  -4.4110  -3.8469
    -2.5773  -2.5332  -2.3955  -2.3467  -1.2874  -0.9777  -0.8028  -0.5999
    -0.1887   0.1033   0.2151   0.2508   5.5859   5.7847   5.7957   5.8507

     the Fermi energy is     3.6364 ev

!    total energy              =    -234.80506352 Ry
     estimated scf accuracy    <          9.2E-10 Ry
     smearing contrib. (-TS)   =       0.00000000 Ry
     internal energy E=F+TS    =    -234.80506352 Ry

     The total energy is F=E-TS. E is the sum of the following terms:
     one-electron contribution =     -24.25787934 Ry
     hartree contribution      =      17.56450176 Ry
     xc contribution           =     -35.36074470 Ry
     ewald contribution        =     -54.01930793 Ry
     one-center paw contrib.   =    -138.73163332 Ry

     convergence has been achieved in   4 iterations

     Forces acting on atoms (cartesian axes, Ry/au):

     atom    1 type  1   force =     0.00000007   -0.00122607    0.00000009
     atom    2 type  1   force =    -0.00000012    0.00122438   -0.00000004
     atom    3 type  1   force =     0.00000012   -0.00122438    0.00000004
     atom    4 type  1   force =    -0.00000007    0.00122607   -0.00000009
     atom    5 type  2   force =     0.00000012    0.00185895    0.00000024
     atom    6 type  2   force =    -0.00000006   -0.00185995   -0.00000018
     atom    7 type  2   force =     0.00000006    0.00185995    0.00000018
     atom    8 type  2   force =    -0.00000012   -0.00185895   -0.00000024
     atom    9 type  3   force =     0.00023712    0.00025538   -0.00031121
     atom   10 type  3   force =    -0.00023738   -0.00025543    0.00031135
     atom   11 type  3   force =     0.00023735   -0.00025537   -0.00031127
     atom   12 type  3   force =    -0.00023713    0.00025530    0.00031115
     atom   13 type  3   force =    -0.00024340   -0.00055284    0.00024016
     atom   14 type  3   force =     0.00024351    0.00055292   -0.00024027
     atom   15 type  3   force =    -0.00024357    0.00055289    0.00024032
     atom   16 type  3   force =     0.00024348   -0.00055276   -0.00024017
     atom   17 type  3   force =     0.00023738    0.00025543   -0.00031135
     atom   18 type  3   force =    -0.00023712   -0.00025538    0.00031121
     atom   19 type  3   force =     0.00023713   -0.00025530   -0.00031115
     atom   20 type  3   force =    -0.00023735    0.00025537    0.00031127
     atom   21 type  3   force =    -0.00024351   -0.00055292    0.00024027
     atom   22 type  3   force =     0.00024340    0.00055284   -0.00024016
     atom   23 type  3   force =    -0.00024348    0.00055276    0.00024017
     atom   24 type  3   force =     0.00024357   -0.00055289   -0.00024032

     Total force =     0.004996     Total SCF correction =     0.000018


     Computing stress (Cartesian axis) and pressure

          total   stress  (Ry/bohr**3)                   (kbar)     P=       -0.80
   0.00001696  -0.00000000  -0.00000436            2.50       -0.00       -0.64
  -0.00000000  -0.00002221   0.00000000           -0.00       -3.27        0.00
  -0.00000436   0.00000000  -0.00001106           -0.64        0.00       -1.63

     Energy error            =      1.1E-04 Ry
     Gradient error          =      1.9E-03 Ry/Bohr
     Cell gradient error     =      3.3E+00 kbar

     number of scf cycles    =   2
     number of bfgs steps    =   1

     enthalpy           old  =    -234.8049572844 Ry
     enthalpy           new  =    -234.8050635249 Ry

     CASE: enthalpy          _new < enthalpy          _old

     new trust radius        =       0.0073174108 bohr
     new conv_thr            =       0.0000000001 Ry

     new unit-cell volume =   1460.65313 a.u.^3 (   216.44646 Ang^3 )
     density =      1.16546 g/cm^3

CELL_PARAMETERS (alat= 12.09526765)
   1.001402959   0.000000001  -0.000227581
   0.000000002   1.626412640   0.000000065
  -0.491696411   0.000000020   0.506940251

ATOMIC_POSITIONS (crystal)
Al            0.5000000158        0.3763619845        0.7499999802
Al           -0.0000000155        0.1236378856        0.2500000252
Al            0.0000000155        0.8763621144        0.7499999748
Al            0.4999999842        0.6236380155        0.2500000198
Li           -0.0000001052        0.3636434204        0.7499996461
Li            0.5000000816        0.1363570531        0.2500003445
Li            0.4999999184        0.8636429469        0.7499996555
Li            0.0000001052        0.6363565796        0.2500003539
H             0.6722572546        0.2923749464        0.1760851312
H             0.8277428680        0.2076253271        0.8239150896
H             0.1722571210        0.2076253102        0.6760849307
H             0.3277427639        0.2923749698        0.3239148433
H             0.2528420250        0.0443235110        0.3182072949
H             0.2471582776        0.4556767318        0.6817929270
H             0.7528417481        0.4556767207        0.8182070675
H             0.7471579622        0.0443234938        0.1817927028
H             0.1722571320        0.7923746729        0.1760849104
H             0.3277427454        0.7076250536        0.8239148688
H             0.6722572361        0.7076250302        0.6760851567
H             0.8277428790        0.7923746898        0.3239150693
H             0.7528417224        0.5443232682        0.3182070730
H             0.7471579750        0.9556764890        0.6817927051
H             0.2528420378        0.9556765062        0.8182072972
H             0.2471582519        0.5443232793        0.1817929325



     Writing config-only to output data dir ./LiAlH4.save/
     NEW-OLD atomic charge density approx. for the potential
     extrapolated charge   39.97237, renormalised to   40.00000

     total cpu time spent up to now is       49.1 secs

     Self-consistent Calculation

     iteration #  1     ecut=    70.00 Ry     beta= 0.70
     Davidson diagonalization with overlap
     ethr =  1.00E-06,  avg # of iterations =  3.0

     Threshold (ethr) on eigenvalues was too large:
     Diagonalizing with lowered threshold

     Davidson diagonalization with overlap
     ethr =  1.05E-08,  avg # of iterations =  5.0

     total cpu time spent up to now is       54.5 secs

     total energy              =    -234.80514681 Ry
     estimated scf accuracy    <       0.00000587 Ry

     iteration #  2     ecut=    70.00 Ry     beta= 0.70
     Davidson diagonalization with overlap
     ethr =  1.47E-08,  avg # of iterations =  3.0

     total cpu time spent up to now is       56.9 secs

     total energy              =    -234.80514882 Ry
     estimated scf accuracy    <       0.00000058 Ry

     iteration #  3     ecut=    70.00 Ry     beta= 0.70
     Davidson diagonalization with overlap
     ethr =  1.45E-09,  avg # of iterations =  2.1

     total cpu time spent up to now is       58.9 secs

     total energy              =    -234.80514888 Ry
     estimated scf accuracy    <       0.00000005 Ry

     iteration #  4     ecut=    70.00 Ry     beta= 0.70
     Davidson diagonalization with overlap
     ethr =  1.27E-10,  avg # of iterations =  3.5

     total cpu time spent up to now is       61.5 secs

     total energy              =    -234.80514890 Ry
     estimated scf accuracy    <          1.4E-09 Ry

     iteration #  5     ecut=    70.00 Ry     beta= 0.70
     Davidson diagonalization with overlap
     ethr =  3.42E-12,  avg # of iterations =  6.0

     total cpu time spent up to now is       65.0 secs

     total energy              =    -234.80514890 Ry
     estimated scf accuracy    <          6.7E-10 Ry

     iteration #  6     ecut=    70.00 Ry     beta= 0.70
     Davidson diagonalization with overlap
     ethr =  1.67E-12,  avg # of iterations =  2.1

     total cpu time spent up to now is       67.1 secs

     total energy              =    -234.80514890 Ry
     estimated scf accuracy    <          1.1E-10 Ry

     iteration #  7     ecut=    70.00 Ry     beta= 0.70
     Davidson diagonalization with overlap
     ethr =  2.71E-13,  avg # of iterations =  2.0

     total cpu time spent up to now is       69.2 secs

     End of self-consistent calculation

          k = 0.0000 0.0000 0.0000 ( 14493 PWs)   bands (ev):

   -43.9120 -43.9112 -43.9093 -43.9085  -6.9050  -5.7889  -5.7342  -2.8427
    -2.3747  -2.2247  -2.1392  -1.3682  -1.2965  -1.1633  -0.9674   0.1692
     0.2755   0.3398   0.4203   0.6980   4.6663   4.9560   4.9702   5.3441

          k = 0.0001-0.0000 0.3946 ( 14461 PWs)   bands (ev):

   -43.9117 -43.9110 -43.9095 -43.9088  -6.4772  -5.4101  -5.3754  -2.8701
    -2.7079  -2.6841  -2.4324  -1.8751  -1.7329  -1.6579  -0.7219  -0.1950
    -0.0776   0.1762   0.2047   0.2321   5.1636   5.4923   5.8585   5.9428

          k = 0.0002-0.0000 0.7892 ( 14425 PWs)   bands (ev):

   -43.9107 -43.9105 -43.9099 -43.9096  -5.2689  -4.6369  -4.5967  -3.7738
    -3.0226  -2.8382  -2.5068  -2.4728  -2.1477  -1.7551  -1.5701  -1.4226
    -1.2444  -0.5110  -0.4425  -0.1781   4.8287   4.9672   5.0096   5.6519

          k =-0.0000 0.1230-0.0000 ( 14495 PWs)   bands (ev):

   -43.9120 -43.9113 -43.9092 -43.9085  -6.8587  -6.1702  -5.2693  -3.3821
    -2.1834  -2.0987  -1.8281  -1.5937  -1.5301  -0.8520  -0.7323  -0.0627
     0.1738   0.2440   0.5235   0.6920   4.6448   4.8581   4.9993   5.2426

          k = 0.0001 0.1230 0.3946 ( 14469 PWs)   bands (ev):

   -43.9116 -43.9111 -43.9094 -43.9088  -6.4328  -5.7771  -4.9349  -3.2719
    -2.6659  -2.6445  -2.2568  -2.0540  -1.7539  -1.3034  -0.5740  -0.4074
    -0.1863   0.1387   0.2228   0.2828   5.1995   5.6139   5.7776   5.9457

          k = 0.0002 0.1230 0.7892 ( 14439 PWs)   bands (ev):

   -43.9107 -43.9105 -43.9099 -43.9097  -5.2376  -4.8216  -4.4048  -3.8387
    -3.0477  -2.6985  -2.6624  -2.4375  -1.9243  -1.8227  -1.7929  -1.2517
    -1.2133  -0.5945  -0.4876  -0.2030   4.8768   5.1512   5.1877   5.9203

          k =-0.0000 0.2459-0.0000 ( 14490 PWs)   bands (ev):

   -43.9118 -43.9115 -43.9090 -43.9087  -6.7201  -6.4900  -4.7008  -4.0645
    -2.0608  -1.9786  -1.8608  -1.7842  -1.1377  -0.5284  -0.4606  -0.3635
    -0.0959  -0.0132   0.6197   0.6701   4.6396   4.7184   5.0282   5.1063

          k = 0.0001 0.2459 0.3946 ( 14455 PWs)   bands (ev):

   -43.9115 -43.9113 -43.9092 -43.9090  -6.3003  -6.0808  -4.4148  -3.8491
    -2.5431  -2.5281  -2.3695  -2.3300  -1.3116  -0.8878  -0.8232  -0.4917
    -0.2741  -0.0088   0.2676   0.3048   5.3323   5.5514   5.8544   5.8726

          k = 0.0002 0.2459 0.7892 ( 14450 PWs)   bands (ev):

   -43.9107 -43.9106 -43.9098 -43.9097  -5.1464  -5.0032  -4.1958  -3.9976
    -3.0103  -2.8758  -2.4186  -2.2900  -2.0772  -2.0505  -1.5545  -1.2695
    -1.0545  -0.8086  -0.4604  -0.3078   5.1395   5.5151   5.6831   5.8839

          k = 0.1998-0.0000 0.1938 ( 14496 PWs)   bands (ev):

   -43.9117 -43.9109 -43.9095 -43.9087  -6.6967  -5.6061  -5.5681  -2.9273
    -2.8696  -2.6327  -1.9617  -1.9377  -1.1516  -1.1298  -0.8510  -0.1934
     0.1764   0.3902   0.4106   0.5097   4.8916   5.1794   5.5219   5.5951

          k = 0.1999-0.0000 0.5884 ( 14451 PWs)   bands (ev):

   -43.9110 -43.9103 -43.9101 -43.9095  -5.9007  -5.3176  -4.7586  -3.7904
    -3.4060  -2.8751  -2.1467  -1.8200  -1.6423  -1.2323  -0.9685  -0.9217
    -0.6324  -0.4705  -0.0560   0.1578   5.2541   5.4587   5.7526   5.9470

          k = 0.1999-0.0000 0.9830 ( 14451 PWs)   bands (ev):

   -43.9107 -43.9105 -43.9099 -43.9096  -5.2503  -4.6282  -4.6103  -3.7773
    -2.9709  -2.8873  -2.5337  -2.5176  -2.1926  -1.7176  -1.5582  -1.3789
    -1.2025  -0.5382  -0.4938  -0.1466   4.8054   5.0284   5.0600   5.5959

          k = 0.1996 0.0000-0.5955 ( 14469 PWs)   bands (ev):

   -43.9114 -43.9112 -43.9092 -43.9090  -5.8695  -5.2560  -4.6919  -3.6153
    -3.5257  -2.9533  -2.1173  -1.8342  -1.8233  -1.1173  -1.0868  -0.8662
    -0.6801  -0.4347  -0.0609   0.0093   5.2269   5.3679   5.3801   5.7953

          k = 0.1997 0.0000-0.2009 ( 14475 PWs)   bands (ev):

   -43.9119 -43.9113 -43.9092 -43.9085  -6.6842  -5.6347  -5.4976  -2.8875
    -2.7090  -2.6216  -2.0143  -2.0072  -1.1979  -1.1287  -1.0295  -0.0961
     0.0613   0.2125   0.5110   0.5437   4.8862   5.0813   5.5257   5.6793

          k = 0.1998 0.1230 0.1938 ( 14484 PWs)   bands (ev):

   -43.9117 -43.9110 -43.9094 -43.9088  -6.6515  -5.9816  -5.1152  -3.3647
    -2.8850  -2.4190  -1.8985  -1.8442  -1.3477  -0.9123  -0.6214  -0.4026
     0.1281   0.2766   0.4692   0.5153   4.8995   5.0741   5.5656   5.7418

          k = 0.1999 0.1230 0.5884 ( 14430 PWs)   bands (ev):

   -43.9109 -43.9105 -43.9100 -43.9095  -5.8654  -5.4210  -4.6470  -3.9241
    -3.3066  -2.7158  -2.1148  -2.0595  -1.7244  -1.2704  -1.1248  -0.7131
    -0.5641  -0.4108  -0.0336   0.1371   5.2666   5.4064   5.8036   6.0976

          k = 0.1999 0.1230 0.9830 ( 14438 PWs)   bands (ev):

   -43.9107 -43.9105 -43.9099 -43.9097  -5.2198  -4.8159  -4.4147  -3.8456
    -3.0386  -2.7049  -2.6966  -2.4584  -1.9829  -1.7764  -1.7741  -1.2350
    -1.1820  -0.5835  -0.5534  -0.1708   4.8497   5.2114   5.2461   5.8636

          k = 0.1996 0.1230-0.5955 ( 14454 PWs)   bands (ev):

   -43.9114 -43.9112 -43.9092 -43.9090  -5.8332  -5.3684  -4.5686  -3.7830
    -3.4314  -2.7884  -2.1388  -2.0825  -1.7232  -1.1737  -1.0803  -0.9276
    -0.7300  -0.2633  -0.0641   0.0621   5.1653   5.2505   5.4088   5.9971

          k = 0.1997 0.1230-0.2009 ( 14478 PWs)   bands (ev):

   -43.9119 -43.9113 -43.9091 -43.9086  -6.6389  -5.9686  -5.0847  -3.2957
    -2.8461  -2.3573  -1.9742  -1.8420  -1.4004  -0.9896  -0.7236  -0.3278
     0.0388   0.1390   0.5196   0.5532   4.8834   4.9910   5.6853   5.7182

          k = 0.1998 0.2459 0.1938 ( 14467 PWs)   bands (ev):

   -43.9115 -43.9113 -43.9092 -43.9090  -6.5163  -6.2922  -4.5757  -3.9829
    -2.7616  -2.5737  -1.7825  -1.5973  -1.3561  -0.8405  -0.4907  -0.2842
    -0.1007   0.0323   0.5170   0.5248   4.9167   4.9624   5.6343   5.7078

          k = 0.1999 0.2459 0.5884 ( 14445 PWs)   bands (ev):

   -43.9108 -43.9107 -43.9098 -43.9096  -5.7626  -5.6038  -4.4267  -4.1752
    -3.0326  -2.6806  -2.1446  -2.0233  -1.8789  -1.7273  -0.9425  -0.7434
    -0.3818  -0.2450  -0.0028   0.0482   5.4113   5.4640   5.6179   5.8518

          k = 0.1999 0.2459 0.9830 ( 14451 PWs)   bands (ev):

   -43.9107 -43.9106 -43.9098 -43.9097  -5.1308  -4.9917  -4.2087  -4.0094
    -3.0220  -2.9004  -2.4039  -2.2892  -2.0641  -2.0422  -1.5902  -1.2969
    -1.0391  -0.8009  -0.4613  -0.2806   5.1155   5.5993   5.7510   5.7832

          k = 0.1996 0.2459-0.5955 ( 14461 PWs)   bands (ev):

   -43.9114 -43.9113 -43.9091 -43.9091  -5.7270  -5.5618  -4.3318  -4.0630
    -3.1710  -2.8346  -2.0960  -1.9831  -1.8396  -1.6555  -0.9683  -0.8414
    -0.6248  -0.3527   0.0744   0.1288   5.0884   5.1053   5.6996   5.9308

          k = 0.1997 0.2459-0.2009 ( 14488 PWs)   bands (ev):

   -43.9117 -43.9115 -43.9089 -43.9087  -6.5033  -6.2788  -4.5402  -3.9359
    -2.7247  -2.5367  -1.8552  -1.6613  -1.3038  -0.7722  -0.5816  -0.3716
    -0.1947  -0.0654   0.5402   0.5571   4.8771   4.8993   5.7488   5.7785

          k = 0.3995-0.0000 0.3875 ( 14463 PWs)   bands (ev):

   -43.9110 -43.9102 -43.9102 -43.9094  -6.1278  -5.5515  -4.9251  -3.9400
    -3.6187  -3.0743  -2.0069  -1.3800  -1.1034  -0.7868  -0.7592  -0.6344
    -0.2386   0.0322   0.0604   0.2305   4.8514   5.1701   5.8103   5.8977

          k = 0.3996-0.0000 0.7821 ( 14488 PWs)   bands (ev):

   -43.9110 -43.9103 -43.9101 -43.9095  -5.8945  -5.3030  -4.7656  -3.7760
    -3.4297  -2.8740  -2.1494  -1.8095  -1.7495  -1.2671  -0.9883  -0.9108
    -0.5326  -0.4821   0.0453   0.0965   5.2660   5.5114   5.5731   5.8944

          k = 0.3997-0.0000 1.1767 ( 14463 PWs)   bands (ev):

   -43.9114 -43.9112 -43.9092 -43.9090  -5.8532  -5.2745  -4.6568  -3.6679
    -3.5016  -2.9923  -2.1757  -1.7563  -1.7544  -1.2171  -0.9754  -0.9330
    -0.8134  -0.2661  -0.1835   0.0450   5.1857   5.4192   5.7653   5.8774

          k = 0.3993 0.0000-0.4017 ( 14471 PWs)   bands (ev):

   -43.9117 -43.9115 -43.9090 -43.9087  -6.0793  -5.4946  -4.8090  -3.7621
    -3.7000  -3.1614  -1.9745  -1.4356  -1.0333  -0.9718  -0.8341  -0.5906
    -0.3690  -0.0566   0.0347   0.1140   4.7166   4.9856   5.7557   5.7722

          k = 0.3994-0.0000-0.0071 ( 14490 PWs)   bands (ev):

   -43.9117 -43.9110 -43.9095 -43.9088  -6.4703  -5.4122  -5.3591  -2.8787
    -2.7309  -2.6970  -2.4071  -1.8519  -1.7637  -1.7458  -0.6546  -0.2052
    -0.1641   0.0946   0.1599   0.4111   5.4299   5.4562   5.7831   6.1738

          k = 0.3995 0.1230 0.3875 ( 14465 PWs)   bands (ev):

   -43.9110 -43.9105 -43.9100 -43.9094  -6.0922  -5.6498  -4.8194  -4.0855
    -3.5150  -2.9036  -2.2152  -1.3729  -1.3274  -0.9181  -0.5597  -0.5034
    -0.1435  -0.0024   0.0978   0.2341   4.9029   5.1574   5.7779   5.8603

          k = 0.3996 0.1230 0.7821 ( 14472 PWs)   bands (ev):

   -43.9109 -43.9105 -43.9100 -43.9095  -5.8591  -5.4100  -4.6493  -3.9124
    -3.3337  -2.7235  -2.1150  -2.0876  -1.7224  -1.2198  -1.1968  -0.7415
    -0.7387  -0.1784   0.0387   0.0868   5.2885   5.3921   5.5448   6.1717

          k = 0.3997 0.1230 1.1767 ( 14466 PWs)   bands (ev):

   -43.9114 -43.9112 -43.9092 -43.9090  -5.8176  -5.3737  -4.5529  -3.8263
    -3.3993  -2.8191  -2.1420  -2.0728  -1.7419  -1.3150  -1.0853  -0.7678
    -0.5760  -0.3874  -0.1462   0.0677   5.1926   5.3826   5.8239   6.0218

          k = 0.3993 0.1230-0.4017 ( 14467 PWs)   bands (ev):

   -43.9117 -43.9115 -43.9090 -43.9088  -6.0430  -5.5929  -4.7056  -3.9454
    -3.5925  -2.9608  -2.2011  -1.4065  -1.3058  -0.9841  -0.6998  -0.5012
    -0.2360  -0.0650  -0.0039   0.1680   4.7545   4.9729   5.6451   5.7816

          k = 0.3994 0.1230-0.0071 ( 14484 PWs)   bands (ev):

   -43.9116 -43.9111 -43.9094 -43.9088  -6.4259  -5.7705  -4.9274  -3.2683
    -2.6917  -2.6549  -2.2579  -2.0907  -1.7290  -1.3755  -0.5000  -0.3875
    -0.3079   0.1678   0.1750   0.3518   5.4529   5.5812   5.9100   5.9174

          k = 0.3995 0.2459 0.3875 ( 14465 PWs)   bands (ev):

   -43.9109 -43.9107 -43.9097 -43.9096  -5.9887  -5.8297  -4.6028  -4.3479
    -3.2305  -2.8716  -2.2671  -1.8282  -1.2486  -1.0999  -0.3655  -0.2179
    -0.1884   0.0190   0.1664   0.2026   5.0189   5.1168   5.7999   5.9040

          k = 0.3996 0.2459 0.7821 ( 14453 PWs)   bands (ev):

   -43.9108 -43.9107 -43.9098 -43.9096  -5.7558  -5.5958  -4.4235  -4.1677
    -3.0704  -2.7336  -2.1012  -2.0157  -1.8671  -1.6753  -1.0436  -0.8881
    -0.4298  -0.1491   0.0635   0.1351   5.2862   5.3033   5.7097   5.9893

          k = 0.3997 0.2459 1.1767 ( 14475 PWs)   bands (ev):

   -43.9114 -43.9113 -43.9091 -43.9091  -5.7140  -5.5547  -4.3418  -4.0920
    -3.1213  -2.7817  -2.1583  -2.0457  -1.8943  -1.7632  -0.8671  -0.6362
    -0.5022  -0.4085  -0.0668   0.0236   5.3441   5.3778   5.6943   5.8051

          k = 0.3993 0.2459-0.4017 ( 14466 PWs)   bands (ev):

   -43.9116 -43.9115 -43.9089 -43.9088  -5.9375  -5.7754  -4.4907  -4.2311
    -3.2990  -2.9341  -2.2448  -1.8015  -1.3033  -1.1548  -0.3736  -0.3464
    -0.2262  -0.1644   0.1060   0.1786   4.8396   4.9273   5.6511   5.7332

          k = 0.3994 0.2459-0.0071 ( 14478 PWs)   bands (ev):

   -43.9115 -43.9113 -43.9092 -43.9090  -6.2934  -6.0740  -4.4076  -3.8426
    -2.5752  -2.5333  -2.3924  -2.3464  -1.2846  -0.9725  -0.7994  -0.5936
    -0.1786   0.1117   0.2116   0.2499   5.5830   5.7893   5.7920   5.8525

          k =-0.0001 0.1230-0.3946 ( 14469 PWs)   bands (ev):

   -43.9116 -43.9111 -43.9094 -43.9088  -6.4328  -5.7771  -4.9349  -3.2719
    -2.6659  -2.6445  -2.2568  -2.0540  -1.7539  -1.3034  -0.5740  -0.4074
    -0.1863   0.1387   0.2228   0.2828   5.1995   5.6139   5.7776   5.9455

          k =-0.0002 0.1230-0.7892 ( 14439 PWs)   bands (ev):

   -43.9107 -43.9105 -43.9099 -43.9097  -5.2376  -4.8216  -4.4048  -3.8387
    -3.0477  -2.6985  -2.6624  -2.4375  -1.9243  -1.8227  -1.7929  -1.2517
    -1.2133  -0.5945  -0.4876  -0.2030   4.8768   5.1512   5.1877   5.9203

          k =-0.0001 0.2459-0.3946 ( 14455 PWs)   bands (ev):

   -43.9115 -43.9113 -43.9092 -43.9090  -6.3003  -6.0808  -4.4148  -3.8491
    -2.5431  -2.5281  -2.3695  -2.3300  -1.3116  -0.8878  -0.8232  -0.4917
    -0.2741  -0.0088   0.2676   0.3048   5.3323   5.5514   5.8545   5.8727

          k =-0.0002 0.2459-0.7892 ( 14450 PWs)   bands (ev):

   -43.9107 -43.9106 -43.9098 -43.9097  -5.1464  -5.0032  -4.1958  -3.9976
    -3.0103  -2.8758  -2.4186  -2.2900  -2.0772  -2.0505  -1.5545  -1.2695
[...]
    -0.4882  -0.4263   0.1105   0.1453   5.3215   5.4821   5.4864   6.0503

          k = 0.1958 0.0000-0.1994 ( 14325 PWs)   bands (ev):

   -43.8730 -43.8717 -43.8714 -43.8700  -6.6881  -5.5771  -5.4973  -2.9188
    -2.6683  -2.5615  -1.9946  -1.9592  -1.1285  -1.0326  -0.8872  -0.0415
     0.2311   0.3903   0.4742   0.5302   4.9192   5.1101   5.5630   5.6098

          k = 0.1994 0.1251 0.1958 ( 14337 PWs)   bands (ev):

   -43.8730 -43.8720 -43.8710 -43.8701  -6.6416  -5.9487  -5.0452  -3.2311
    -2.8765  -2.3495  -1.9510  -1.7826  -1.3585  -0.8113  -0.6178  -0.2624
     0.1965   0.3135   0.4844   0.5385   4.9245   5.0282   5.6453   5.7151

          k = 0.2029 0.1251 0.5910 ( 14319 PWs)   bands (ev):

   -43.8724 -43.8720 -43.8710 -43.8706  -5.8418  -5.3864  -4.5608  -3.8295
    -3.3379  -2.7296  -2.1361  -1.9994  -1.7166  -1.2088  -1.0854  -0.6694
    -0.4880  -0.3442   0.0342   0.1989   5.3537   5.4314   5.8390   6.1488

          k = 0.2064 0.1251 0.9863 ( 14285 PWs)   bands (ev):

   -43.8720 -43.8716 -43.8713 -43.8710  -5.2302  -4.8088  -4.3965  -3.8198
    -3.0252  -2.6872  -2.6534  -2.4242  -1.8998  -1.7564  -1.7375  -1.1699
    -1.1410  -0.5058  -0.4434  -0.0632   4.9896   5.3647   5.4091   6.1137

          k = 0.1923 0.1251-0.5946 ( 14320 PWs)   bands (ev):

   -43.8724 -43.8720 -43.8710 -43.8706  -5.8446  -5.3738  -4.5781  -3.8090
    -3.3591  -2.7105  -2.1163  -2.0538  -1.6986  -1.1091  -1.1071  -0.7741
    -0.6770  -0.1251   0.0684   0.1955   5.3255   5.3877   5.5133   6.0587

          k = 0.1958 0.1251-0.1994 ( 14338 PWs)   bands (ev):

   -43.8730 -43.8720 -43.8710 -43.8701  -6.6413  -5.9475  -5.0467  -3.2325
    -2.8747  -2.3482  -1.9529  -1.7782  -1.3619  -0.8155  -0.6163  -0.2620
     0.1952   0.3138   0.4853   0.5391   4.9207   5.0203   5.6481   5.7215

          k = 0.1994 0.2503 0.1958 ( 14351 PWs)   bands (ev):

   -43.8727 -43.8724 -43.8706 -43.8703  -6.5015  -6.2695  -4.4873  -3.8734
    -2.7470  -2.5463  -1.8271  -1.6261  -1.2481  -0.7126  -0.3962  -0.2473
    -0.0224   0.0874   0.5119   0.5378   4.9235   4.9413   5.6893   5.7369

          k = 0.2029 0.2503 0.5910 ( 14310 PWs)   bands (ev):

   -43.8723 -43.8721 -43.8709 -43.8707  -5.7352  -5.5715  -4.3502  -4.0980
    -3.0425  -2.6786  -2.0941  -2.0357  -1.8802  -1.6744  -0.8911  -0.6729
    -0.3566  -0.2186   0.0888   0.1394   5.4887   5.5521   5.7559   5.9615

          k = 0.2064 0.2503 0.9863 ( 14300 PWs)   bands (ev):

   -43.8719 -43.8718 -43.8712 -43.8711  -5.1370  -4.9916  -4.1873  -3.9852
    -3.0060  -2.8743  -2.3742  -2.2690  -2.0130  -2.0091  -1.4995  -1.1893
    -0.9982  -0.7408  -0.3886  -0.1949   5.2976   5.7809   5.9222   6.0156

          k = 0.1923 0.2503-0.5946 ( 14310 PWs)   bands (ev):

   -43.8723 -43.8722 -43.8709 -43.8707  -5.7362  -5.5682  -4.3502  -4.0860
    -3.0779  -2.7221  -2.0474  -2.0094  -1.8502  -1.5948  -0.9739  -0.8232
    -0.4518  -0.1639   0.1736   0.2506   5.2853   5.2907   5.8371   6.0015

          k = 0.1958 0.2503-0.1994 ( 14351 PWs)   bands (ev):

   -43.8728 -43.8724 -43.8706 -43.8703  -6.5011  -6.2690  -4.4883  -3.8744
    -2.7450  -2.5440  -1.8292  -1.6288  -1.2464  -0.7119  -0.3982  -0.2474
    -0.0235   0.0870   0.5128   0.5386   4.9184   4.9350   5.6938   5.7428

          k = 0.3987 0.0000 0.3917 ( 14319 PWs)   bands (ev):

   -43.8726 -43.8721 -43.8710 -43.8704  -6.1036  -5.5121  -4.8178  -3.7903
    -3.6510  -3.0986  -1.9224  -1.4257  -0.9899  -0.8200  -0.6649  -0.5830
    -0.1431   0.0240   0.1206   0.1952   4.7777   5.0573   5.7863   5.8583

          k = 0.4023 0.0000 0.7869 ( 14320 PWs)   bands (ev):

   -43.8724 -43.8719 -43.8711 -43.8706  -5.8830  -5.2694  -4.6844  -3.6393
    -3.4672  -2.8958  -2.1529  -1.7534  -1.7511  -1.1596  -0.9411  -0.8381
    -0.4904  -0.4236   0.1101   0.1438   5.3239   5.4815   5.4861   6.0544

          k = 0.4058 0.0000 1.1821 ( 14320 PWs)   bands (ev):

   -43.8724 -43.8719 -43.8711 -43.8706  -5.8770  -5.2789  -4.6742  -3.6802
    -3.4419  -2.9031  -2.1706  -1.7166  -1.6715  -1.2045  -0.8846  -0.8622
    -0.6314  -0.3293  -0.0007   0.2031   5.3175   5.4407   5.8843   5.9630

          k = 0.3917 0.0000-0.3988 ( 14315 PWs)   bands (ev):

   -43.8726 -43.8721 -43.8709 -43.8704  -6.1019  -5.5050  -4.8289  -3.7989
    -3.6455  -3.0892  -1.9214  -1.4268  -0.9889  -0.8196  -0.6662  -0.5903
    -0.1456   0.0263   0.1167   0.1980   4.7799   5.0621   5.7758   5.8555

          k = 0.3952 0.0000-0.0036 ( 14302 PWs)   bands (ev):

   -43.8729 -43.8715 -43.8715 -43.8702  -6.4727  -5.3532  -5.3507  -2.7565
    -2.7197  -2.7169  -2.3540  -1.8427  -1.7260  -1.6813  -0.5459  -0.0576
    -0.0143   0.1748   0.2048   0.3503   5.3113   5.5139   5.9368   6.0022

          k = 0.3987 0.1251 0.3917 ( 14300 PWs)   bands (ev):

   -43.8726 -43.8721 -43.8709 -43.8705  -6.0665  -5.6097  -4.7192  -3.9673
    -3.5360  -2.8947  -2.1392  -1.3936  -1.2447  -0.9385  -0.4906  -0.4609
    -0.0463  -0.0038   0.0917   0.2880   4.8281   5.0546   5.7698   5.8314

          k = 0.4023 0.1251 0.7869 ( 14319 PWs)   bands (ev):

   -43.8724 -43.8720 -43.8710 -43.8706  -5.8459  -5.3782  -4.5700  -3.8028
    -3.3638  -2.7196  -2.1158  -2.0540  -1.7015  -1.1079  -1.1019  -0.7706
    -0.6743  -0.1271   0.0694   0.1946   5.3275   5.3880   5.5140   6.0523

          k = 0.4058 0.1251 1.1821 ( 14319 PWs)   bands (ev):

   -43.8724 -43.8720 -43.8710 -43.8706  -5.8402  -5.3818  -4.5691  -3.8353
    -3.3327  -2.7218  -2.1357  -2.0017  -1.7163  -1.2093  -1.0896  -0.6670
    -0.4895  -0.3465   0.0339   0.1984   5.3544   5.4290   5.8421   6.1498

          k = 0.3917 0.1251-0.3988 ( 14302 PWs)   bands (ev):

   -43.8726 -43.8722 -43.8709 -43.8705  -6.0647  -5.6046  -4.7281  -3.9736
    -3.5306  -2.8861  -2.1409  -1.3955  -1.2435  -0.9380  -0.4962  -0.4624
    -0.0488  -0.0050   0.0935   0.2885   4.8303   5.0587   5.7668   5.8219

          k = 0.3952 0.1251-0.0036 ( 14354 PWs)   bands (ev):

   -43.8728 -43.8719 -43.8711 -43.8702  -6.4268  -5.7485  -4.8802  -3.1741
    -2.6814  -2.6693  -2.2060  -2.0604  -1.7010  -1.2954  -0.3962  -0.2959
    -0.1295   0.1971   0.2678   0.3236   5.3394   5.6221   5.8540   5.9710

          k = 0.3987 0.2503 0.3917 ( 14338 PWs)   bands (ev):

   -43.8724 -43.8723 -43.8707 -43.8706  -5.9586  -5.7937  -4.5102  -4.2521
    -3.2257  -2.8453  -2.1968  -1.7409  -1.2849  -1.1268  -0.3438  -0.1857
    -0.1502   0.0106   0.2331   0.3231   4.9387   5.0290   5.8060   5.8750

          k = 0.4023 0.2503 0.7869 ( 14310 PWs)   bands (ev):

   -43.8723 -43.8721 -43.8709 -43.8707  -5.7379  -5.5707  -4.3443  -4.0808
    -3.0831  -2.7297  -2.0461  -2.0092  -1.8509  -1.5954  -0.9693  -0.8198
    -0.4509  -0.1651   0.1744   0.2506   5.2874   5.2923   5.8372   5.9960

          k = 0.4058 0.2503 1.1821 ( 14310 PWs)   bands (ev):

   -43.8723 -43.8722 -43.8709 -43.8707  -5.7332  -5.5687  -4.3562  -4.1032
    -3.0370  -2.6702  -2.0980  -2.0351  -1.8804  -1.6762  -0.8942  -0.6759
    -0.3544  -0.2166   0.0874   0.1373   5.4876   5.5507   5.7593   5.9612

          k = 0.3917 0.2503-0.3988 ( 14338 PWs)   bands (ev):

   -43.8725 -43.8723 -43.8707 -43.8706  -5.9564  -5.7905  -4.5166  -4.2576
    -3.2201  -2.8368  -2.2007  -1.7424  -1.2849  -1.1269  -0.3465  -0.1877
    -0.1521   0.0092   0.2341   0.3235   4.9411   5.0320   5.8014   5.8674

          k = 0.3952 0.2503-0.0036 ( 14350 PWs)   bands (ev):

   -43.8726 -43.8723 -43.8707 -43.8704  -6.2896  -6.0626  -4.3448  -3.7646
    -2.5585  -2.5397  -2.3616  -2.3414  -1.2252  -0.8620  -0.7243  -0.4486
    -0.0973   0.1561   0.2549   0.3116   5.4586   5.6630   5.8356   5.8818

          k =-0.0035 0.1251-0.3952 ( 14355 PWs)   bands (ev):

   -43.8728 -43.8719 -43.8711 -43.8702  -6.4269  -5.7487  -4.8801  -3.1746
    -2.6811  -2.6695  -2.2056  -2.0606  -1.6973  -1.2964  -0.4000  -0.2959
    -0.1298   0.1979   0.2674   0.3254   5.3391   5.6227   5.8560   5.9704

          k =-0.0071 0.1251-0.7904 ( 14286 PWs)   bands (ev):

   -43.8720 -43.8716 -43.8713 -43.8710  -5.2304  -4.8091  -4.3959  -3.8202
    -3.0254  -2.6894  -2.6516  -2.4206  -1.8990  -1.7619  -1.7360  -1.1695
    -1.1424  -0.5052  -0.4420  -0.0634   4.9921   5.3616   5.4060   6.1167

          k =-0.0035 0.2503-0.3952 ( 14350 PWs)   bands (ev):

   -43.8726 -43.8723 -43.8707 -43.8704  -6.2897  -6.0627  -4.3449  -3.7648
    -2.5578  -2.5402  -2.3596  -2.3429  -1.2235  -0.8626  -0.7234  -0.4489
    -0.0995   0.1555   0.2555   0.3121   5.4581   5.6621   5.8388   5.8856

          k =-0.0071 0.2503-0.7904 ( 14299 PWs)   bands (ev):

   -43.8719 -43.8718 -43.8712 -43.8711  -5.1372  -4.9918  -4.1869  -3.9852
    -3.0059  -2.8736  -2.3773  -2.2678  -2.0099  -2.0095  -1.5008  -1.1896
    -0.9989  -0.7407  -0.3878  -0.1948   5.2987   5.7759   5.9199   6.0198

          k =-0.1994 0.1251-0.1958 ( 14337 PWs)   bands (ev):

   -43.8730 -43.8720 -43.8710 -43.8701  -6.6416  -5.9487  -5.0452  -3.2311
    -2.8765  -2.3495  -1.9510  -1.7826  -1.3585  -0.8113  -0.6178  -0.2624
     0.1965   0.3135   0.4844   0.5385   4.9245   5.0282   5.6453   5.7150

          k =-0.2029 0.1251-0.5910 ( 14319 PWs)   bands (ev):

   -43.8724 -43.8720 -43.8710 -43.8706  -5.8418  -5.3864  -4.5608  -3.8295
    -3.3379  -2.7296  -2.1361  -1.9994  -1.7166  -1.2088  -1.0854  -0.6694
    -0.4880  -0.3442   0.0342   0.1989   5.3537   5.4314   5.8390   6.1489

          k =-0.2064 0.1251-0.9863 ( 14285 PWs)   bands (ev):

   -43.8720 -43.8716 -43.8713 -43.8710  -5.2302  -4.8088  -4.3965  -3.8198
    -3.0252  -2.6872  -2.6534  -2.4242  -1.8998  -1.7564  -1.7375  -1.1699
    -1.1410  -0.5058  -0.4434  -0.0632   4.9896   5.3647   5.4091   6.1137

          k =-0.1923 0.1251 0.5946 ( 14320 PWs)   bands (ev):

   -43.8724 -43.8720 -43.8710 -43.8706  -5.8446  -5.3738  -4.5781  -3.8090
    -3.3591  -2.7105  -2.1163  -2.0538  -1.6986  -1.1091  -1.1071  -0.7741
    -0.6770  -0.1251   0.0684   0.1955   5.3255   5.3877   5.5133   6.0587

          k =-0.1958 0.1251 0.1994 ( 14338 PWs)   bands (ev):

   -43.8730 -43.8720 -43.8710 -43.8701  -6.6413  -5.9475  -5.0467  -3.2325
    -2.8747  -2.3482  -1.9529  -1.7782  -1.3619  -0.8155  -0.6163  -0.2620
     0.1952   0.3138   0.4853   0.5391   4.9207   5.0203   5.6481   5.7215

          k =-0.1994 0.2503-0.1958 ( 14351 PWs)   bands (ev):

   -43.8727 -43.8724 -43.8706 -43.8703  -6.5015  -6.2695  -4.4873  -3.8734
    -2.7470  -2.5463  -1.8271  -1.6261  -1.2481  -0.7126  -0.3962  -0.2473
    -0.0224   0.0874   0.5119   0.5378   4.9235   4.9413   5.6892   5.7371

          k =-0.2029 0.2503-0.5910 ( 14310 PWs)   bands (ev):

   -43.8723 -43.8721 -43.8709 -43.8707  -5.7352  -5.5715  -4.3502  -4.0980
    -3.0425  -2.6786  -2.0941  -2.0357  -1.8802  -1.6744  -0.8911  -0.6729
    -0.3566  -0.2186   0.0888   0.1394   5.4887   5.5521   5.7559   5.9615

          k =-0.2064 0.2503-0.9863 ( 14300 PWs)   bands (ev):

   -43.8719 -43.8718 -43.8712 -43.8711  -5.1370  -4.9916  -4.1873  -3.9852
    -3.0060  -2.8743  -2.3742  -2.2690  -2.0130  -2.0091  -1.4995  -1.1893
    -0.9982  -0.7408  -0.3886  -0.1949   5.2976   5.7809   5.9222   6.0156

          k =-0.1923 0.2503 0.5946 ( 14310 PWs)   bands (ev):

   -43.8723 -43.8722 -43.8709 -43.8707  -5.7362  -5.5682  -4.3502  -4.0860
    -3.0779  -2.7221  -2.0474  -2.0094  -1.8502  -1.5948  -0.9739  -0.8232
    -0.4518  -0.1639   0.1736   0.2506   5.2853   5.2907   5.8371   6.0016

          k =-0.1958 0.2503 0.1994 ( 14351 PWs)   bands (ev):

   -43.8728 -43.8724 -43.8706 -43.8703  -6.5011  -6.2690  -4.4883  -3.8744
    -2.7450  -2.5440  -1.8292  -1.6288  -1.2464  -0.7119  -0.3982  -0.2474
    -0.0235   0.0870   0.5128   0.5386   4.9184   4.9350   5.6938   5.7428

          k =-0.3987 0.1251-0.3917 ( 14300 PWs)   bands (ev):

   -43.8726 -43.8721 -43.8709 -43.8705  -6.0665  -5.6097  -4.7192  -3.9673
    -3.5360  -2.8947  -2.1392  -1.3936  -1.2447  -0.9385  -0.4906  -0.4609
    -0.0463  -0.0038   0.0917   0.2880   4.8281   5.0546   5.7698   5.8314

          k =-0.4023 0.1251-0.7869 ( 14319 PWs)   bands (ev):

   -43.8724 -43.8720 -43.8710 -43.8706  -5.8459  -5.3782  -4.5700  -3.8028
    -3.3638  -2.7196  -2.1158  -2.0540  -1.7015  -1.1079  -1.1019  -0.7706
    -0.6743  -0.1271   0.0694   0.1946   5.3275   5.3880   5.5140   6.0523

          k =-0.4058 0.1251-1.1821 ( 14319 PWs)   bands (ev):

   -43.8724 -43.8720 -43.8710 -43.8706  -5.8402  -5.3818  -4.5691  -3.8353
    -3.3327  -2.7218  -2.1357  -2.0017  -1.7163  -1.2093  -1.0896  -0.6670
    -0.4895  -0.3465   0.0339   0.1984   5.3544   5.4290   5.8422   6.1495

          k =-0.3917 0.1251 0.3988 ( 14302 PWs)   bands (ev):

   -43.8726 -43.8722 -43.8709 -43.8705  -6.0647  -5.6046  -4.7281  -3.9736
    -3.5306  -2.8861  -2.1409  -1.3955  -1.2435  -0.9380  -0.4962  -0.4624
    -0.0488  -0.0050   0.0935   0.2885   4.8303   5.0587   5.7668   5.8219

          k =-0.3952 0.1251 0.0036 ( 14354 PWs)   bands (ev):

   -43.8728 -43.8719 -43.8711 -43.8702  -6.4268  -5.7485  -4.8802  -3.1741
    -2.6814  -2.6693  -2.2060  -2.0604  -1.7010  -1.2954  -0.3962  -0.2959
    -0.1295   0.1971   0.2678   0.3236   5.3394   5.6221   5.8539   5.9703

          k =-0.3987 0.2503-0.3917 ( 14338 PWs)   bands (ev):

   -43.8724 -43.8723 -43.8707 -43.8706  -5.9586  -5.7937  -4.5102  -4.2521
    -3.2257  -2.8453  -2.1968  -1.7409  -1.2849  -1.1268  -0.3438  -0.1857
    -0.1502   0.0106   0.2331   0.3231   4.9387   5.0290   5.8060   5.8752

          k =-0.4023 0.2503-0.7869 ( 14310 PWs)   bands (ev):

   -43.8723 -43.8721 -43.8709 -43.8707  -5.7379  -5.5707  -4.3443  -4.0808
    -3.0831  -2.7297  -2.0461  -2.0092  -1.8509  -1.5954  -0.9693  -0.8198
    -0.4509  -0.1651   0.1744   0.2506   5.2874   5.2923   5.8372   5.9960

          k =-0.4058 0.2503-1.1821 ( 14310 PWs)   bands (ev):

   -43.8723 -43.8722 -43.8709 -43.8707  -5.7332  -5.5687  -4.3562  -4.1032
    -3.0370  -2.6702  -2.0980  -2.0351  -1.8804  -1.6762  -0.8942  -0.6759
    -0.3544  -0.2166   0.0874   0.1373   5.4876   5.5507   5.7593   5.9612

          k =-0.3917 0.2503 0.3988 ( 14338 PWs)   bands (ev):

   -43.8725 -43.8723 -43.8707 -43.8706  -5.9564  -5.7905  -4.5166  -4.2576
    -3.2201  -2.8368  -2.2007  -1.7424  -1.2849  -1.1269  -0.3465  -0.1877
    -0.1521   0.0092   0.2341   0.3235   4.9411   5.0320   5.8014   5.8682

          k =-0.3952 0.2503 0.0036 ( 14350 PWs)   bands (ev):

   -43.8726 -43.8723 -43.8707 -43.8704  -6.2896  -6.0626  -4.3448  -3.7646
    -2.5585  -2.5397  -2.3616  -2.3414  -1.2252  -0.8620  -0.7243  -0.4486
    -0.0973   0.1561   0.2549   0.3116   5.4586   5.6630   5.8356   5.8818

     the Fermi energy is     3.6186 ev

!    total energy              =    -234.80688746 Ry
     estimated scf accuracy    <          1.5E-11 Ry
     smearing contrib. (-TS)   =       0.00000000 Ry
     internal energy E=F+TS    =    -234.80688746 Ry

     The total energy is F=E-TS. E is the sum of the following terms:
     one-electron contribution =     -23.74597844 Ry
     hartree contribution      =      17.39139913 Ry
     xc contribution           =     -35.37701451 Ry
     ewald contribution        =     -54.34393669 Ry
     one-center paw contrib.   =    -138.73135695 Ry

     convergence has been achieved in  11 iterations

     Forces acting on atoms (cartesian axes, Ry/au):

     atom    1 type  1   force =     0.00000000   -0.00008712    0.00000000
     atom    2 type  1   force =     0.00000001    0.00008770   -0.00000001
     atom    3 type  1   force =    -0.00000001   -0.00008770    0.00000001
     atom    4 type  1   force =    -0.00000000    0.00008712   -0.00000000
     atom    5 type  2   force =     0.00000002    0.00007395    0.00000000
     atom    6 type  2   force =    -0.00000001   -0.00007421    0.00000003
     atom    7 type  2   force =     0.00000001    0.00007421   -0.00000003
     atom    8 type  2   force =    -0.00000002   -0.00007395   -0.00000000
     atom    9 type  3   force =    -0.00011151   -0.00007856    0.00002438
     atom   10 type  3   force =     0.00011163    0.00007855   -0.00002459
     atom   11 type  3   force =    -0.00011163    0.00007857    0.00002460
     atom   12 type  3   force =     0.00011151   -0.00007854   -0.00002438
     atom   13 type  3   force =    -0.00003963    0.00011871   -0.00006876
     atom   14 type  3   force =     0.00003969   -0.00011895    0.00006887
     atom   15 type  3   force =    -0.00003971   -0.00011895   -0.00006887
     atom   16 type  3   force =     0.00003965    0.00011872    0.00006878
     atom   17 type  3   force =    -0.00011163   -0.00007855    0.00002459
     atom   18 type  3   force =     0.00011151    0.00007856   -0.00002438
     atom   19 type  3   force =    -0.00011151    0.00007854    0.00002438
     atom   20 type  3   force =     0.00011163   -0.00007857   -0.00002460
     atom   21 type  3   force =    -0.00003969    0.00011895   -0.00006887
     atom   22 type  3   force =     0.00003963   -0.00011871    0.00006876
     atom   23 type  3   force =    -0.00003965   -0.00011872   -0.00006878
     atom   24 type  3   force =     0.00003971    0.00011895    0.00006887

     Total force =     0.000608     Total SCF correction =     0.000003


     Computing stress (Cartesian axis) and pressure

          total   stress  (Ry/bohr**3)                   (kbar)     P=       -0.14
  -0.00000088  -0.00000000  -0.00000115           -0.13       -0.00       -0.17
  -0.00000000   0.00000046  -0.00000000           -0.00        0.07       -0.00
  -0.00000115  -0.00000000  -0.00000249           -0.17       -0.00       -0.37


     Writing all to output data dir ./LiAlH4.save/
 
     init_run     :      3.76s CPU      3.92s WALL (       2 calls)
     electrons    :    462.72s CPU    475.89s WALL (      25 calls)
     update_pot   :     17.35s CPU     17.47s WALL (      23 calls)
     forces       :     18.81s CPU     19.06s WALL (      25 calls)
     stress       :     41.43s CPU     41.79s WALL (      25 calls)

     Called by init_run:
     wfcinit      :      2.35s CPU      2.41s WALL (       2 calls)
     potinit      :      0.58s CPU      0.59s WALL (       2 calls)
     hinit0       :      0.73s CPU      0.74s WALL (       2 calls)

     Called by electrons:
     c_bands      :    395.96s CPU    405.51s WALL (     178 calls)
     sum_band     :     48.26s CPU     49.16s WALL (     178 calls)
     v_of_rho     :      1.65s CPU      1.67s WALL (     187 calls)
     newd         :      2.47s CPU      2.51s WALL (     187 calls)
     PAW_pot      :     18.49s CPU     18.61s WALL (     210 calls)
     mix_rho      :      0.30s CPU      0.30s WALL (     178 calls)

     Called by c_bands:
     init_us_2    :     13.75s CPU     14.15s WALL (   13792 calls)
     init_us_2:cp :     13.67s CPU     14.10s WALL (   13792 calls)
     cegterg      :    335.91s CPU    341.93s WALL (    5696 calls)

     Called by *egterg:
     cdiaghg      :     18.57s CPU     18.79s WALL (   26703 calls)
     h_psi        :    246.40s CPU    251.50s WALL (   28015 calls)
     s_psi        :     24.56s CPU     24.85s WALL (   28015 calls)
     g_psi        :      2.64s CPU      2.67s WALL (   22255 calls)

     Called by h_psi:
     h_psi:calbec :     29.12s CPU     29.61s WALL (   28015 calls)
     vloc_psi     :    190.33s CPU    194.69s WALL (   28015 calls)
     add_vuspsi   :     25.16s CPU     25.43s WALL (   28015 calls)

     General routines
     calbec       :     43.39s CPU     44.09s WALL (   38447 calls)
     fft          :      1.43s CPU      1.45s WALL (    2721 calls)
     ffts         :      0.06s CPU      0.06s WALL (     178 calls)
     fftw         :    194.07s CPU    198.35s WALL ( 1028230 calls)
 
     Parallel routines
 
     PWSCF        :   9m 9.23s CPU   9m26.74s WALL

 
   This run was terminated on:  22:43:17   6Dec2023            

=------------------------------------------------------------------------------=
   JOB DONE.
=------------------------------------------------------------------------------=
