
     Program PWSCF v.7.1 starts on  3Dec2023 at 16:27:22 

     This program is part of the open-source Quantum ESPRESSO suite
     for quantum simulation of materials; please cite
         "P. Giannozzi et al., J. Phys.:Condens. Matter 21 395502 (2009);
         "P. Giannozzi et al., J. Phys.:Condens. Matter 29 465901 (2017);
         "P. Giannozzi et al., J. Chem. Phys. 152 154105 (2020);
          URL http://www.quantum-espresso.org", 
     in publications or presentations arising from this work. More details at
     http://www.quantum-espresso.org/quote

     Parallel version (MPI & OpenMP), running on      28 processor cores
     Number of MPI processes:                28
     Threads/MPI process:                     1

     MPI processes distributed on     1 nodes
     122405 MiB available memory on the printing compute node when the environment starts
 
     Reading input from NaAlH4_opt.in

     Current dimensions of program PWSCF are:
     Max number of different atomic species (ntypx) = 10
     Max number of k-points (npk) =  40000
     Max angular momentum in pseudopotentials (lmaxx) =  4
     file Al.pbe-n-kjpaw_psl.1.0.0.UPF: wavefunction(s)  3S 3P renormalized

     IMPORTANT: XC functional enforced from input :
     Exchange-correlation= PBE
                           (   1   4   3   4   0   0   0)
     Any further DFT definition will be discarded
     Please, verify this is what you really want

     Found identity + ( -0.5000  0.5000  0.5000) symmetry
     This is a supercell, fractional translations are disabled
     Message from routine setup:
     using ibrav=0 with symmetry is DISCOURAGED, use correct ibrav instead
 
     R & G space division:  proc/nbgrp/npool/nimage =      28
     Subspace diagonalization in iterative solution of the eigenvalue problem:
     a serial algorithm will be used

 
     Parallelization info
     --------------------
     sticks:   dense  smooth     PW     G-vecs:    dense   smooth      PW
     Min          69      69     19                 5117     5117     739
     Max          70      70     20                 5126     5126     745
     Sum        1941    1941    545               143347   143347   20779
 
     Using Slab Decomposition
 


     bravais-lattice index     =            0
     lattice parameter (alat)  =       9.3373  a.u.
     unit-cell volume          =    1810.6075 (a.u.)^3
     number of atoms/cell      =           24
     number of atomic types    =            3
     number of electrons       =        64.00
     number of Kohn-Sham states=           38
     kinetic-energy cutoff     =      70.0000  Ry
     charge density cutoff     =     280.0000  Ry
     scf convergence threshold =      1.0E-08
     mixing beta               =       0.7000
     number of iterations used =            8  plain     mixing
     energy convergence thresh.=      1.0E-04
     force convergence thresh. =      1.0E-03
     press convergence thresh. =      5.0E-01
     Exchange-correlation= PBE
                           (   1   4   3   4   0   0   0)
     nstep                     =           50


     celldm(1)=   9.337326  celldm(2)=   0.000000  celldm(3)=   0.000000
     celldm(4)=   0.000000  celldm(5)=   0.000000  celldm(6)=   0.000000

     crystal axes: (cart. coord. in units of alat)
               a(1) = (   1.000000   0.000000   0.000000 )  
               a(2) = (   0.000000   1.000000   0.000000 )  
               a(3) = (   0.000000   0.000000   2.224113 )  

     reciprocal axes: (cart. coord. in units 2 pi/alat)
               b(1) = (  1.000000  0.000000  0.000000 )  
               b(2) = (  0.000000  1.000000  0.000000 )  
               b(3) = (  0.000000  0.000000  0.449617 )  


     PseudoPot. # 1 for H  read from file:
     /scratch/antwerpen/209/vsc20922/pseudos/H.pbe-rrkjus_psl.1.0.0.UPF
     MD5 check sum: f52b6d4d1c606e5624b1dc7b2218f220
     Pseudo is Ultrasoft, Zval =  1.0
     Generated using "atomic" code by A. Dal Corso  v.5.1
     Using radial grid of  929 points,  2 beta functions with: 
                l(1) =   0
                l(2) =   0
     Q(r) pseudized with 0 coefficients 


     PseudoPot. # 2 for Al read from file:
     /scratch/antwerpen/209/vsc20922/pseudos/Al.pbe-n-kjpaw_psl.1.0.0.UPF
     MD5 check sum: cfc449ca30b5f3223ec38ddd88ac046d
     Pseudo is Projector augmented-wave + core cor, Zval =  3.0
     Generated using "atomic" code by A. Dal Corso  v.5.1
     Shape of augmentation charge: PSQ
     Using radial grid of 1135 points,  6 beta functions with: 
                l(1) =   0
                l(2) =   0
                l(3) =   1
                l(4) =   1
                l(5) =   2
                l(6) =   2
     Q(r) pseudized with 0 coefficients 


     PseudoPot. # 3 for Na read from file:
     /scratch/antwerpen/209/vsc20922/pseudos/na_pbe_v1.5.uspp.F.UPF
     MD5 check sum: 44600605ef58000f06b90626533354dc
     Pseudo is Ultrasoft, Zval =  9.0
     Generated by new atomic code, or converted to UPF format
     Using radial grid of  819 points,  5 beta functions with: 
                l(1) =   0
                l(2) =   0
                l(3) =   1
                l(4) =   1
                l(5) =   2
     Q(r) pseudized with  8 coefficients,  rinner =    1.250   1.250   1.250
                                                       1.250   1.250

     atomic species   valence    mass     pseudopotential
        H              1.00     1.00750     H ( 1.00)
        Al             3.00    26.98100     Al( 1.00)
        Na             9.00    22.98900     Na( 1.00)

      4 Sym. Ops. (no inversion) found



   Cartesian axes

     site n.     atom                  positions (alat units)
         1           Al  tau(   1) = (   0.0000000   0.5000000   1.6680845  )
         2           Al  tau(   2) = (   0.0000000   0.0000000   1.1120564  )
         3           Al  tau(   3) = (   0.5000000   0.0000000   0.5560282  )
         4           Al  tau(   4) = (   0.5000000   0.5000000   0.0000000  )
         5           Na  tau(   5) = (   0.5000000   0.0000000   1.6680845  )
         6           Na  tau(   6) = (   0.5000000   0.5000000   1.1120564  )
         7           Na  tau(   7) = (   0.0000000   0.5000000   0.5560282  )
         8           Na  tau(   8) = (   0.0000000   0.0000000   0.0000000  )
         9           H   tau(   9) = (   0.8578140   0.7635132   0.9318537  )
        10           H   tau(  10) = (   0.7635132   0.6421860   1.4878818  )
        11           H   tau(  11) = (   0.2364868   0.3578139   1.4878818  )
        12           H   tau(  12) = (   0.1421861   0.2364868   0.9318537  )
        13           H   tau(  13) = (   0.8578140   0.2635132   1.8482873  )
        14           H   tau(  14) = (   0.7635132   0.1421861   1.2922591  )
        15           H   tau(  15) = (   0.2364868   0.8578140   1.2922591  )
        16           H   tau(  16) = (   0.1421861   0.7364868   1.8482873  )
        17           H   tau(  17) = (   0.3578139   0.2635132   2.0439100  )
        18           H   tau(  18) = (   0.2635132   0.1421861   0.3758255  )
        19           H   tau(  19) = (   0.7364868   0.8578140   0.3758255  )
        20           H   tau(  20) = (   0.6421860   0.7364868   2.0439100  )
        21           H   tau(  21) = (   0.3578139   0.7635132   0.7362309  )
        22           H   tau(  22) = (   0.2635132   0.6421860   0.1802027  )
        23           H   tau(  23) = (   0.7364868   0.3578139   0.1802027  )
        24           H   tau(  24) = (   0.6421860   0.2364868   0.7362309  )

     number of k points=    52  Marzari-Vanderbilt smearing, width (Ry)=  0.0050
                       cart. coord. in units 2pi/alat
        k(    1) = (   0.0000000   0.0000000   0.0000000), wk =   0.0058309
        k(    2) = (   0.0000000   0.0000000   0.0642311), wk =   0.0116618
        k(    3) = (   0.0000000   0.0000000   0.1284621), wk =   0.0116618
        k(    4) = (   0.0000000   0.0000000   0.1926932), wk =   0.0116618
        k(    5) = (   0.0000000   0.1428571   0.0000000), wk =   0.0233236
        k(    6) = (   0.0000000   0.1428571   0.0642311), wk =   0.0466472
        k(    7) = (   0.0000000   0.1428571   0.1284621), wk =   0.0466472
        k(    8) = (   0.0000000   0.1428571   0.1926932), wk =   0.0466472
        k(    9) = (   0.0000000   0.2857143   0.0000000), wk =   0.0233236
        k(   10) = (   0.0000000   0.2857143   0.0642311), wk =   0.0466472
        k(   11) = (   0.0000000   0.2857143   0.1284621), wk =   0.0466472
        k(   12) = (   0.0000000   0.2857143   0.1926932), wk =   0.0466472
        k(   13) = (   0.0000000   0.4285714   0.0000000), wk =   0.0233236
        k(   14) = (   0.0000000   0.4285714   0.0642311), wk =   0.0466472
        k(   15) = (   0.0000000   0.4285714   0.1284621), wk =   0.0466472
        k(   16) = (   0.0000000   0.4285714   0.1926932), wk =   0.0466472
        k(   17) = (   0.1428571   0.1428571   0.0000000), wk =   0.0233236
        k(   18) = (   0.1428571   0.1428571   0.0642311), wk =   0.0466472
        k(   19) = (   0.1428571   0.1428571   0.1284621), wk =   0.0466472
        k(   20) = (   0.1428571   0.1428571   0.1926932), wk =   0.0466472
        k(   21) = (   0.1428571   0.2857143   0.0000000), wk =   0.0233236
        k(   22) = (   0.1428571   0.2857143   0.0642311), wk =   0.0466472
        k(   23) = (   0.1428571   0.2857143   0.1284621), wk =   0.0466472
        k(   24) = (   0.1428571   0.2857143   0.1926932), wk =   0.0466472
        k(   25) = (   0.1428571   0.4285714   0.0000000), wk =   0.0233236
        k(   26) = (   0.1428571   0.4285714   0.0642311), wk =   0.0466472
        k(   27) = (   0.1428571   0.4285714   0.1284621), wk =   0.0466472
        k(   28) = (   0.1428571   0.4285714   0.1926932), wk =   0.0466472
        k(   29) = (   0.2857143   0.2857143   0.0000000), wk =   0.0233236
        k(   30) = (   0.2857143   0.2857143   0.0642311), wk =   0.0466472
        k(   31) = (   0.2857143   0.2857143   0.1284621), wk =   0.0466472
        k(   32) = (   0.2857143   0.2857143   0.1926932), wk =   0.0466472
        k(   33) = (   0.2857143   0.4285714   0.0000000), wk =   0.0233236
        k(   34) = (   0.2857143   0.4285714   0.0642311), wk =   0.0466472
        k(   35) = (   0.2857143   0.4285714   0.1284621), wk =   0.0466472
        k(   36) = (   0.2857143   0.4285714   0.1926932), wk =   0.0466472
        k(   37) = (   0.4285714   0.4285714   0.0000000), wk =   0.0233236
        k(   38) = (   0.4285714   0.4285714   0.0642311), wk =   0.0466472
        k(   39) = (   0.4285714   0.4285714   0.1284621), wk =   0.0466472
        k(   40) = (   0.4285714   0.4285714   0.1926932), wk =   0.0466472
        k(   41) = (   0.2857143   0.1428571   0.0000000), wk =   0.0233236
        k(   42) = (   0.2857143   0.1428571  -0.0642311), wk =   0.0466472
        k(   43) = (   0.2857143   0.1428571  -0.1284621), wk =   0.0466472
        k(   44) = (   0.2857143   0.1428571  -0.1926932), wk =   0.0466472
        k(   45) = (   0.4285714   0.1428571   0.0000000), wk =   0.0233236
        k(   46) = (   0.4285714   0.1428571  -0.0642311), wk =   0.0466472
        k(   47) = (   0.4285714   0.1428571  -0.1284621), wk =   0.0466472
        k(   48) = (   0.4285714   0.1428571  -0.1926932), wk =   0.0466472
        k(   49) = (   0.4285714   0.2857143   0.0000000), wk =   0.0233236
        k(   50) = (   0.4285714   0.2857143  -0.0642311), wk =   0.0466472
        k(   51) = (   0.4285714   0.2857143  -0.1284621), wk =   0.0466472
        k(   52) = (   0.4285714   0.2857143  -0.1926932), wk =   0.0466472

     Dense  grid:   143347 G-vectors     FFT dimensions: (  50,  50, 120)

     Estimated max dynamical RAM per process >      50.74 MB

     Estimated total dynamical RAM >       1.39 GB

     Initial potential from superposition of free atoms

     starting charge      63.9655, renormalised to      64.0000
     Starting wfcs are   52 randomized atomic wfcs
     Checking if some PAW data can be deallocated... 

     total cpu time spent up to now is        2.7 secs

     Self-consistent Calculation

     iteration #  1     ecut=    70.00 Ry     beta= 0.70
     Davidson diagonalization with overlap
     ethr =  1.00E-02,  avg # of iterations =  3.9

     total cpu time spent up to now is        7.1 secs

     total energy              =    -558.21904505 Ry
     estimated scf accuracy    <       1.09340976 Ry

     iteration #  2     ecut=    70.00 Ry     beta= 0.70
     Davidson diagonalization with overlap
     ethr =  1.71E-03,  avg # of iterations =  2.0

     total cpu time spent up to now is       10.8 secs

     total energy              =    -558.29010802 Ry
     estimated scf accuracy    <       0.02207284 Ry

     iteration #  3     ecut=    70.00 Ry     beta= 0.70
     Davidson diagonalization with overlap
     c_bands:  1 eigenvalues not converged
     ethr =  3.45E-05,  avg # of iterations = 10.6

     total cpu time spent up to now is       17.4 secs

     total energy              =    -558.29650985 Ry
     estimated scf accuracy    <       0.00085822 Ry

     iteration #  4     ecut=    70.00 Ry     beta= 0.70
     Davidson diagonalization with overlap
     c_bands:  1 eigenvalues not converged
     c_bands:  1 eigenvalues not converged
     c_bands:  1 eigenvalues not converged
     ethr =  1.34E-06,  avg # of iterations =  7.7

     total cpu time spent up to now is       25.4 secs

     total energy              =    -558.29673902 Ry
     estimated scf accuracy    <       0.00010252 Ry

     iteration #  5     ecut=    70.00 Ry     beta= 0.70
     Davidson diagonalization with overlap
     ethr =  1.60E-07,  avg # of iterations =  2.8

     total cpu time spent up to now is       29.6 secs

     total energy              =    -558.29675675 Ry
     estimated scf accuracy    <       0.00001436 Ry

     iteration #  6     ecut=    70.00 Ry     beta= 0.70
     Davidson diagonalization with overlap
     ethr =  2.24E-08,  avg # of iterations =  2.3

     total cpu time spent up to now is       33.4 secs

     total energy              =    -558.29675839 Ry
     estimated scf accuracy    <       0.00000081 Ry

     iteration #  7     ecut=    70.00 Ry     beta= 0.70
     Davidson diagonalization with overlap
     ethr =  1.26E-09,  avg # of iterations =  3.4

     total cpu time spent up to now is       37.3 secs

     total energy              =    -558.29675846 Ry
     estimated scf accuracy    <       0.00000009 Ry

     iteration #  8     ecut=    70.00 Ry     beta= 0.70
     Davidson diagonalization with overlap
     ethr =  1.47E-10,  avg # of iterations =  3.7

     total cpu time spent up to now is       41.6 secs

     total energy              =    -558.29675848 Ry
     estimated scf accuracy    <       0.00000002 Ry

     iteration #  9     ecut=    70.00 Ry     beta= 0.70
     Davidson diagonalization with overlap
     ethr =  3.61E-11,  avg # of iterations =  2.0

     total cpu time spent up to now is       45.3 secs

     End of self-consistent calculation

          k = 0.0000 0.0000 0.0000 ( 17959 PWs)   bands (ev):

   -49.8256 -49.8248 -49.8248 -49.8241 -21.7586 -21.7541 -21.7541 -21.7508
   -21.7508 -21.7467 -21.7467 -21.7449 -21.7449 -21.7417 -21.7417 -21.7346
    -6.2371  -5.2348  -5.2348  -2.9953  -2.2681  -1.8153  -1.8153  -1.2824
    -1.2824  -0.8762  -0.8762  -0.5315  -0.5315  -0.1024  -0.0565  -0.0565
     4.7475   4.8207   4.9938   4.9938   5.4555   6.3204

          k = 0.0000 0.0000 0.0642 ( 17943 PWs)   bands (ev):

   -49.8256 -49.8250 -49.8246 -49.8241 -21.7583 -21.7539 -21.7539 -21.7511
   -21.7511 -21.7493 -21.7446 -21.7446 -21.7440 -21.7418 -21.7418 -21.7349
    -6.2160  -5.4942  -4.9418  -3.1811  -2.0907  -1.8001  -1.8001  -1.3456
    -1.3456  -0.7999  -0.7999  -0.6933  -0.4053  -0.1105  -0.0871  -0.0871
     4.7528   4.7702   4.9377   4.9819   5.5853   6.3571

          k = 0.0000 0.0000 0.1285 ( 17947 PWs)   bands (ev):

   -49.8255 -49.8251 -49.8245 -49.8241 -21.7574 -21.7536 -21.7536 -21.7519
   -21.7516 -21.7516 -21.7441 -21.7441 -21.7421 -21.7421 -21.7415 -21.7358
    -6.1529  -5.7175  -4.6187  -3.5290  -1.7692  -1.7552  -1.7552  -1.4653
    -1.4653  -0.8979  -0.6432  -0.6432  -0.3075  -0.1748  -0.1748  -0.1347
     4.6999   4.7712   4.8329   4.9268   5.8908   6.4582

          k = 0.0000 0.0000 0.1927 ( 17952 PWs)   bands (ev):

   -49.8254 -49.8253 -49.8243 -49.8242 -21.7560 -21.7541 -21.7530 -21.7530
   -21.7524 -21.7524 -21.7433 -21.7433 -21.7427 -21.7427 -21.7392 -21.7372
    -6.0482  -5.9027  -4.2700  -3.9027  -1.6819  -1.6819  -1.5831  -1.5831
    -1.4435  -1.1489  -0.4702  -0.4702  -0.3078  -0.3078  -0.2320  -0.1750
     4.6828   4.7330   4.8072   4.8617   6.2864   6.5971

          k = 0.0000 0.1429 0.0000 ( 17927 PWs)   bands (ev):

   -49.8255 -49.8249 -49.8248 -49.8241 -21.7586 -21.7549 -21.7539 -21.7510
   -21.7509 -21.7476 -21.7462 -21.7449 -21.7447 -21.7418 -21.7407 -21.7347
    -6.1447  -5.1854  -5.1408  -3.0853  -2.1974  -2.1969  -1.7527  -1.5421
    -1.2164  -1.0440  -0.8823  -0.5197  -0.4451  -0.1250  -0.1180  -0.0357
     4.8952   5.0432   5.2406   5.2570   5.4777   5.9914

          k = 0.0000 0.1429 0.0642 ( 17950 PWs)   bands (ev):

   -49.8255 -49.8250 -49.8247 -49.8241 -21.7583 -21.7548 -21.7538 -21.7513
   -21.7512 -21.7494 -21.7447 -21.7445 -21.7444 -21.7419 -21.7407 -21.7349
    -6.1240  -5.4171  -4.8774  -3.2318  -2.1807  -2.0734  -1.7379  -1.5939
    -1.2857  -0.9613  -0.8043  -0.6537  -0.3657  -0.1496  -0.1357  -0.0410
     4.8629   5.0129   5.2041   5.2412   5.6014   6.0314

          k = 0.0000 0.1429 0.1285 ( 17948 PWs)   bands (ev):

   -49.8255 -49.8251 -49.8245 -49.8242 -21.7575 -21.7546 -21.7534 -21.7519
   -21.7517 -21.7516 -21.7441 -21.7440 -21.7429 -21.7422 -21.7403 -21.7358
    -6.0620  -5.6351  -4.5655  -3.5374  -2.1316  -1.9102  -1.6939  -1.6079
    -1.4075  -0.8641  -0.7912  -0.6522  -0.3475  -0.2239  -0.1503  -0.0569
     4.8168   4.9400   5.1608   5.1991   5.8618   6.1379

          k = 0.0000 0.1429 0.1927 ( 17942 PWs)   bands (ev):

   -49.8254 -49.8253 -49.8244 -49.8243 -21.7562 -21.7548 -21.7530 -21.7529
   -21.7526 -21.7523 -21.7433 -21.7433 -21.7428 -21.7427 -21.7388 -21.7371
    -5.9591  -5.8164  -4.2312  -3.8833  -2.0535  -1.9577  -1.6220  -1.5253
    -1.3874  -1.1150  -0.6072  -0.4899  -0.4464  -0.3417  -0.1203  -0.0839
     4.8128   4.8609   5.1427   5.1575   6.1524   6.2589

          k = 0.0000 0.2857 0.0000 ( 17927 PWs)   bands (ev):

   -49.8254 -49.8250 -49.8247 -49.8242 -21.7585 -21.7565 -21.7534 -21.7515
   -21.7513 -21.7493 -21.7454 -21.7450 -21.7442 -21.7422 -21.7390 -21.7350
    -5.8817  -5.0981  -4.8661  -3.4025  -2.7965  -2.2260  -1.8740  -1.5772
    -1.1881  -1.0277  -0.9281  -0.6682  -0.5607  -0.2237  -0.2150  -0.0334
     5.1360   5.2242   5.4619   5.6639   5.8857   5.9830

          k = 0.0000 0.2857 0.0642 ( 17920 PWs)   bands (ev):

   -49.8254 -49.8250 -49.8246 -49.8242 -21.7583 -21.7564 -21.7533 -21.7518
   -21.7514 -21.7502 -21.7447 -21.7445 -21.7441 -21.7423 -21.7390 -21.7353
    -5.8626  -5.2343  -4.7073  -3.4818  -2.7707  -2.1555  -1.9619  -1.5637
    -1.1556  -1.0522  -0.8395  -0.8270  -0.4589  -0.2616  -0.1953  -0.0358
     5.1310   5.1509   5.5877   5.6858   5.9201   5.9773

          k = 0.0000 0.2857 0.1285 ( 17916 PWs)   bands (ev):

   -49.8254 -49.8251 -49.8245 -49.8243 -21.7576 -21.7561 -21.7531 -21.7525
   -21.7519 -21.7518 -21.7440 -21.7437 -21.7433 -21.7425 -21.7388 -21.7359
    -5.8053  -5.4193  -4.4560  -3.6757  -2.6937  -2.2047  -1.9078  -1.5237
    -1.2626  -1.0949  -0.8632  -0.6879  -0.4274  -0.3333  -0.1568  -0.0451
     5.0768   5.1120   5.7444   5.7730   5.9960   6.0127

          k = 0.0000 0.2857 0.1927 ( 17917 PWs)   bands (ev):

   -49.8253 -49.8252 -49.8244 -49.8243 -21.7567 -21.7560 -21.7532 -21.7532
   -21.7526 -21.7522 -21.7433 -21.7432 -21.7429 -21.7428 -21.7381 -21.7370
    -5.7108  -5.5811  -4.1887  -3.9225  -2.5676  -2.3983  -1.6545  -1.4584
    -1.3736  -1.3698  -0.6620  -0.5541  -0.5063  -0.4339  -0.1044  -0.0660
     5.0577   5.0801   5.8017   5.8226   6.1116   6.1196

          k = 0.0000 0.4286 0.0000 ( 17889 PWs)   bands (ev):

   -49.8253 -49.8251 -49.8245 -49.8243 -21.7584 -21.7577 -21.7527 -21.7520
   -21.7514 -21.7507 -21.7450 -21.7450 -21.7435 -21.7428 -21.7373 -21.7359
    -5.5056  -5.1741  -4.4359  -3.9081  -3.0469  -2.7680  -1.5514  -1.3308
    -1.1246  -1.1069  -1.0245  -0.7920  -0.7475  -0.4403  -0.2029  -0.1185
     5.2031   5.3445   5.6344   5.7292   5.7617   6.2263

          k = 0.0000 0.4286 0.0642 ( 17890 PWs)   bands (ev):

   -49.8253 -49.8251 -49.8245 -49.8244 -21.7582 -21.7576 -21.7527 -21.7521
   -21.7517 -21.7513 -21.7446 -21.7445 -21.7435 -21.7428 -21.7373 -21.7361
    -5.4926  -5.1957  -4.4163  -3.9497  -3.0001  -2.7080  -1.6946  -1.3251
    -1.2688  -1.1190  -0.9195  -0.7271  -0.6753  -0.4435  -0.2110  -0.1225
     5.2261   5.3553   5.6413   5.6572   5.8621   6.2598

          k = 0.0000 0.4286 0.1285 ( 17885 PWs)   bands (ev):

   -49.8252 -49.8251 -49.8245 -49.8244 -21.7576 -21.7572 -21.7528 -21.7527
   -21.7523 -21.7521 -21.7437 -21.7435 -21.7433 -21.7429 -21.7375 -21.7365
    -5.4549  -5.2521  -4.3604  -4.0493  -2.8696  -2.5739  -1.9234  -1.5489
    -1.2949  -1.1562  -0.7428  -0.6535  -0.5810  -0.4147  -0.2342  -0.1386
     5.2864   5.3809   5.6422   5.6773   5.9146   6.2014

          k = 0.0000 0.4286 0.1927 ( 17873 PWs)   bands (ev):

   -49.8252 -49.8252 -49.8244 -49.8244 -21.7570 -21.7568 -21.7536 -21.7536
   -21.7524 -21.7522 -21.7432 -21.7431 -21.7430 -21.7428 -21.7375 -21.7371
    -5.3964  -5.3247  -4.2743  -4.1662  -2.6855  -2.5299  -2.0033  -1.8213
    -1.2559  -1.2070  -0.6581  -0.6027  -0.5042  -0.3981  -0.2290  -0.1755
     5.3567   5.3939   5.6996   5.7340   5.8939   5.9623

          k = 0.1429 0.1429 0.0000 ( 17943 PWs)   bands (ev):

   -49.8255 -49.8248 -49.8248 -49.8241 -21.7585 -21.7548 -21.7546 -21.7517
   -21.7507 -21.7473 -21.7469 -21.7454 -21.7441 -21.7409 -21.7407 -21.7347
    -6.0532  -5.0946  -5.0910  -3.1531  -2.1419  -2.1260  -2.1118  -1.4980
    -1.4441  -1.2406  -0.8448  -0.4731  -0.3884  -0.2296  -0.1781  -0.0295
     5.2285   5.3026   5.3089   5.3687   5.4692   6.1169

          k = 0.1429 0.1429 0.0642 ( 17930 PWs)   bands (ev):

   -49.8255 -49.8250 -49.8247 -49.8241 -21.7583 -21.7547 -21.7545 -21.7519
   -21.7509 -21.7493 -21.7452 -21.7451 -21.7439 -21.7411 -21.7405 -21.7350
    -6.0328  -5.3395  -4.8163  -3.2736  -2.1261  -2.0952  -2.0340  -1.5947
    -1.4791  -1.1278  -0.7812  -0.6113  -0.3271  -0.2355  -0.1920  -0.0329
     5.2070   5.2524   5.2982   5.3097   5.6104   6.0837

          k = 0.1429 0.1429 0.1285 ( 17941 PWs)   bands (ev):

   -49.8254 -49.8251 -49.8245 -49.8242 -21.7575 -21.7546 -21.7543 -21.7525
   -21.7514 -21.7512 -21.7446 -21.7438 -21.7434 -21.7415 -21.7399 -21.7358
    -5.9718  -5.5530  -4.5146  -3.5441  -2.0792  -2.0465  -1.9003  -1.7416
    -1.4850  -0.9357  -0.8250  -0.6402  -0.4031  -0.2526  -0.1653  -0.0444
     5.1736   5.1878   5.2294   5.2954   5.8004   6.0217

          k = 0.1429 0.1429 0.1927 ( 17918 PWs)   bands (ev):

   -49.8253 -49.8252 -49.8244 -49.8243 -21.7564 -21.7552 -21.7538 -21.7531
   -21.7522 -21.7520 -21.7440 -21.7436 -21.7427 -21.7420 -21.7385 -21.7370
    -5.8708  -5.7308  -4.1940  -3.8646  -2.0040  -1.9697  -1.9170  -1.8695
    -1.3169  -1.0694  -0.7368  -0.5528  -0.4853  -0.3502  -0.1060  -0.0671
     5.1594   5.1780   5.1879   5.2398   5.9373   5.9877

          k = 0.1429 0.2857 0.0000 ( 17927 PWs)   bands (ev):

   -49.8254 -49.8249 -49.8247 -49.8242 -21.7585 -21.7564 -21.7541 -21.7526
   -21.7505 -21.7490 -21.7461 -21.7459 -21.7432 -21.7413 -21.7390 -21.7351
    -5.7926  -5.0067  -4.8260  -3.4188  -2.7278  -2.1308  -1.9022  -1.8406
    -1.4357  -1.2435  -0.9192  -0.5925  -0.5235  -0.3757  -0.3259  -0.0392
     5.3480   5.3633   5.5587   5.7638   5.7985   5.8480

          k = 0.1429 0.2857 0.0642 ( 17922 PWs)   bands (ev):

   -49.8254 -49.8250 -49.8246 -49.8242 -21.7582 -21.7563 -21.7541 -21.7528
   -21.7507 -21.7499 -21.7456 -21.7454 -21.7431 -21.7413 -21.7389 -21.7354
    -5.7737  -5.1527  -4.6588  -3.4893  -2.7034  -2.0842  -1.9212  -1.8875
    -1.4144  -1.2228  -0.8490  -0.7612  -0.5078  -0.3453  -0.2892  -0.0377
     5.3373   5.3733   5.4932   5.7894   5.8391   5.9597

          k = 0.1429 0.2857 0.1285 ( 17915 PWs)   bands (ev):

   -49.8253 -49.8251 -49.8245 -49.8243 -21.7576 -21.7561 -21.7540 -21.7533
   -21.7512 -21.7512 -21.7451 -21.7445 -21.7426 -21.7414 -21.7387 -21.7360
    -5.7174  -5.3372  -4.4119  -3.6668  -2.6310  -2.1752  -1.8529  -1.8446
    -1.4854  -1.0641  -1.0080  -0.7151  -0.5821  -0.3931  -0.1700  -0.0372
     5.3183   5.3929   5.4289   5.8212   5.9421   6.2046

          k = 0.1429 0.2857 0.1927 ( 17912 PWs)   bands (ev):

   -49.8253 -49.8252 -49.8244 -49.8244 -21.7568 -21.7561 -21.7541 -21.7538
   -21.7519 -21.7517 -21.7446 -21.7442 -21.7421 -21.7416 -21.7380 -21.7369
    -5.6245  -5.4968  -4.1534  -3.8989  -2.5130  -2.3555  -1.7803  -1.7354
    -1.4803  -1.2673  -0.8769  -0.7104  -0.5828  -0.4732  -0.0892  -0.0492
     5.3146   5.3402   5.5251   5.6911   6.0634   6.1804

          k = 0.1429 0.4286 0.0000 ( 17889 PWs)   bands (ev):

   -49.8252 -49.8251 -49.8246 -49.8244 -21.7582 -21.7577 -21.7536 -21.7534
   -21.7503 -21.7502 -21.7461 -21.7457 -21.7423 -21.7419 -21.7373 -21.7360
    -5.4203  -5.0875  -4.4059  -3.8866  -2.9656  -2.6742  -1.6336  -1.5199
    -1.4827  -1.0289  -1.0264  -0.9284  -0.7481  -0.6455  -0.3346  -0.0697
     5.1472   5.3782   5.6499   5.7253   5.9273   6.1677

          k = 0.1429 0.4286 0.0642 ( 17887 PWs)   bands (ev):

   -49.8252 -49.8251 -49.8245 -49.8244 -21.7581 -21.7575 -21.7536 -21.7535
   -21.7507 -21.7506 -21.7458 -21.7454 -21.7422 -21.7418 -21.7373 -21.7362
    -5.4075  -5.1099  -4.3843  -3.9244  -2.9231  -2.6227  -1.6953  -1.6309
    -1.4052  -1.1732  -0.9835  -0.8893  -0.7412  -0.5417  -0.3478  -0.0715
     5.1674   5.4079   5.6261   5.6744   6.0172   6.1955

          k = 0.1429 0.4286 0.1285 ( 17902 PWs)   bands (ev):

   -49.8252 -49.8251 -49.8245 -49.8244 -21.7576 -21.7572 -21.7539 -21.7539
   -21.7514 -21.7512 -21.7453 -21.7448 -21.7419 -21.7416 -21.7375 -21.7366
    -5.3702  -5.1675  -4.3246  -4.0171  -2.8048  -2.5129  -1.8921  -1.6468
    -1.4073  -1.3909  -0.9274  -0.7734  -0.7569  -0.4071  -0.3524  -0.0850
     5.2291   5.4424   5.6282   5.6375   6.1247   6.1599

          k = 0.1429 0.4286 0.1927 ( 17891 PWs)   bands (ev):

   -49.8252 -49.8251 -49.8245 -49.8244 -21.7570 -21.7569 -21.7544 -21.7544
   -21.7517 -21.7516 -21.7448 -21.7446 -21.7415 -21.7414 -21.7374 -21.7371
    -5.3122  -5.2407  -4.2363  -4.1292  -2.6386  -2.4951  -1.9397  -1.7849
    -1.4694  -1.4436  -0.8764  -0.8229  -0.6053  -0.4823  -0.2191  -0.1289
     5.3213   5.4027   5.6445   5.7012   6.0296   6.2187

          k = 0.2857 0.2857 0.0000 ( 17902 PWs)   bands (ev):

   -49.8253 -49.8248 -49.8248 -49.8243 -21.7583 -21.7561 -21.7558 -21.7537
   -21.7501 -21.7483 -21.7476 -21.7466 -21.7421 -21.7395 -21.7392 -21.7355
    -5.5385  -4.7589  -4.7477  -3.5573  -2.5060  -2.4539  -1.9481  -1.8599
    -1.7501  -1.5133  -0.9974  -0.7713  -0.7330  -0.4617  -0.4492  -0.1849
     4.9927   5.4220   5.5746   5.8748   6.2204   6.3512

          k = 0.2857 0.2857 0.0642 ( 17912 PWs)   bands (ev):

   -49.8253 -49.8249 -49.8247 -49.8243 -21.7581 -21.7561 -21.7557 -21.7539
   -21.7503 -21.7494 -21.7467 -21.7465 -21.7420 -21.7397 -21.7390 -21.7357
    -5.5210  -4.9465  -4.5450  -3.6045  -2.5088  -2.4071  -2.0172  -1.8875
    -1.6163  -1.5647  -0.9346  -0.9273  -0.6789  -0.4741  -0.4187  -0.1809
     5.0187   5.4537   5.6022   5.8882   6.2134   6.2299

          k = 0.2857 0.2857 0.1285 ( 17890 PWs)   bands (ev):

   -49.8252 -49.8250 -49.8246 -49.8244 -21.7576 -21.7560 -21.7556 -21.7543
   -21.7507 -21.7505 -21.7461 -21.7458 -21.7415 -21.7400 -21.7385 -21.7362
    -5.4689  -5.1188  -4.3288  -3.7312  -2.4838  -2.3016  -2.1806  -1.7999
    -1.7335  -1.3576  -1.1343  -0.8142  -0.7620  -0.5177  -0.3270  -0.1771
     5.1010   5.5037   5.6469   5.9528   6.0312   6.2646

          k = 0.2857 0.2857 0.1927 ( 17904 PWs)   bands (ev):

   -49.8252 -49.8251 -49.8245 -49.8244 -21.7570 -21.7563 -21.7553 -21.7548
   -21.7511 -21.7510 -21.7457 -21.7455 -21.7410 -21.7405 -21.7378 -21.7369
    -5.3831  -5.2655  -4.1130  -3.9086  -2.4196  -2.3174  -2.1548  -1.9770
    -1.5632  -1.3519  -1.1344  -0.9281  -0.6956  -0.5943  -0.2416  -0.1921
     5.2424   5.4150   5.7279   5.8659   6.1279   6.3378

          k = 0.2857 0.4286 0.0000 ( 17891 PWs)   bands (ev):

   -49.8251 -49.8250 -49.8247 -49.8245 -21.7579 -21.7573 -21.7552 -21.7548
   -21.7497 -21.7494 -21.7473 -21.7473 -21.7409 -21.7401 -21.7376 -21.7364
    -5.1756  -4.8432  -4.3673  -3.9040  -2.7148  -2.4128  -2.1177  -1.9117
    -1.5914  -1.2250  -1.1736  -1.0868  -1.0725  -0.8502  -0.4136  -0.2153
     4.8385   5.0615   5.7719   6.0794   6.2998   6.3388

          k = 0.2857 0.4286 0.0642 ( 17894 PWs)   bands (ev):

   -49.8251 -49.8250 -49.8246 -49.8245 -21.7578 -21.7573 -21.7553 -21.7549
   -21.7499 -21.7498 -21.7471 -21.7469 -21.7408 -21.7401 -21.7376 -21.7365
    -5.1636  -4.8686  -4.3407  -3.9296  -2.6912  -2.4009  -2.0941  -1.9230
    -1.5916  -1.3001  -1.2452  -1.0755  -1.0314  -0.7779  -0.4270  -0.2204
     4.8751   5.1105   5.7713   6.0373   6.2294   6.3891

          k = 0.2857 0.4286 0.1285 ( 17892 PWs)   bands (ev):

   -49.8251 -49.8250 -49.8246 -49.8245 -21.7575 -21.7571 -21.7554 -21.7552
   -21.7503 -21.7503 -21.7467 -21.7465 -21.7405 -21.7400 -21.7376 -21.7368
    -5.1283  -4.9301  -4.2733  -3.9973  -2.6268  -2.3983  -2.0250  -1.9103
    -1.6407  -1.4387  -1.3302  -1.0929  -0.9399  -0.6701  -0.4460  -0.2451
     4.9894   5.2513   5.6735   5.9040   6.1940   6.5001

          k = 0.2857 0.4286 0.1927 ( 17894 PWs)   bands (ev):

   -49.8251 -49.8250 -49.8246 -49.8245 -21.7571 -21.7569 -21.7556 -21.7555
   -21.7506 -21.7506 -21.7464 -21.7463 -21.7402 -21.7400 -21.7375 -21.7372
    -5.0731  -5.0037  -4.1845  -4.0881  -2.5380  -2.4501  -1.9187  -1.8405
    -1.7338  -1.6262  -1.2773  -1.1871  -0.8002  -0.6866  -0.3912  -0.3037
     5.1832   5.4348   5.4613   5.6974   6.3011   6.4533

          k = 0.4286 0.4286 0.0000 ( 17882 PWs)   bands (ev):

   -49.8250 -49.8248 -49.8248 -49.8246 -21.7575 -21.7568 -21.7566 -21.7559
   -21.7493 -21.7487 -21.7485 -21.7480 -21.7395 -21.7385 -21.7383 -21.7371
    -4.8207  -4.4915  -4.4838  -4.1166  -2.3406  -2.2957  -2.0947  -2.0573
    -1.9642  -1.5893  -1.5503  -1.5250  -0.9560  -0.6412  -0.6259  -0.4243
     4.7981   5.0960   5.1211   5.5117   6.7795   6.8600

          k = 0.4286 0.4286 0.0642 ( 17872 PWs)   bands (ev):

   -49.8250 -49.8248 -49.8248 -49.8246 -21.7574 -21.7568 -21.7566 -21.7560
   -21.7493 -21.7491 -21.7481 -21.7480 -21.7395 -21.7385 -21.7383 -21.7372
    -4.8118  -4.5593  -4.4147  -4.1280  -2.4186  -2.1887  -2.1802  -2.0927
    -1.8102  -1.6871  -1.5737  -1.3854  -0.9804  -0.6731  -0.6490  -0.4433
     4.8521   5.1604   5.1830   5.5722   6.4935   6.8728

          k = 0.4286 0.4286 0.1285 ( 17877 PWs)   bands (ev):

   -49.8250 -49.8249 -49.8247 -49.8247 -21.7573 -21.7568 -21.7566 -21.7561
   -21.7495 -21.7494 -21.7478 -21.7478 -21.7393 -21.7387 -21.7381 -21.7374
    -4.7855  -4.6276  -4.3424  -4.1608  -2.4687  -2.3236  -2.0813  -2.0360
    -1.7976  -1.6135  -1.5595  -1.2766  -1.0142  -0.7603  -0.6896  -0.5017
     5.0106   5.3378   5.3480   5.7147   6.1461   6.5795

          k = 0.4286 0.4286 0.1927 ( 17882 PWs)   bands (ev):

   -49.8249 -49.8249 -49.8247 -49.8247 -21.7571 -21.7569 -21.7565 -21.7563
   -21.7496 -21.7496 -21.7477 -21.7477 -21.7391 -21.7389 -21.7379 -21.7376
    -4.7440  -4.6902  -4.2732  -4.2109  -2.4689  -2.4193  -2.0473  -1.9977
    -1.7642  -1.6361  -1.4148  -1.2837  -0.9800  -0.8769  -0.6745  -0.5912
     5.2512   5.4563   5.5816   5.7689   5.9594   6.2041

          k = 0.2857 0.1429 0.0000 ( 17927 PWs)   bands (ev):

   -49.8254 -49.8249 -49.8247 -49.8242 -21.7585 -21.7562 -21.7545 -21.7524
   -21.7507 -21.7485 -21.7467 -21.7457 -21.7434 -21.7410 -21.7392 -21.7351
    -5.7925  -5.0128  -4.8192  -3.4237  -2.7004  -2.1590  -1.9561  -1.7776
    -1.4403  -1.2847  -0.8371  -0.6835  -0.5499  -0.3024  -0.2266  -0.1321
     5.2570   5.2786   5.6294   5.6815   5.7378   6.3556

          k = 0.2857 0.1429-0.0642 ( 17922 PWs)   bands (ev):

   -49.8254 -49.8250 -49.8246 -49.8242 -21.7583 -21.7561 -21.7544 -21.7526
   -21.7509 -21.7496 -21.7457 -21.7455 -21.7432 -21.7410 -21.7391 -21.7353
    -5.7736  -5.1546  -4.6563  -3.4937  -2.6753  -2.1024  -1.9419  -1.8784
    -1.4710  -1.1856  -0.8387  -0.7782  -0.4426  -0.3327  -0.2382  -0.1341
     5.2700   5.2801   5.6390   5.6980   5.8002   6.2277

          k = 0.2857 0.1429-0.1285 ( 17915 PWs)   bands (ev):

   -49.8253 -49.8251 -49.8245 -49.8243 -21.7576 -21.7559 -21.7544 -21.7532
   -21.7513 -21.7510 -21.7450 -21.7447 -21.7427 -21.7411 -21.7388 -21.7360
    -5.7173  -5.3379  -4.4111  -3.6700  -2.6008  -2.1333  -1.9006  -1.8888
    -1.5478  -1.0728  -0.9866  -0.6471  -0.4606  -0.2996  -0.2791  -0.1426
     5.2999   5.3072   5.6741   5.7106   5.9563   6.0927

          k = 0.2857 0.1429-0.1927 ( 17912 PWs)   bands (ev):

   -49.8253 -49.8252 -49.8244 -49.8244 -21.7568 -21.7560 -21.7543 -21.7538
   -21.7517 -21.7517 -21.7445 -21.7443 -21.7421 -21.7415 -21.7380 -21.7369
    -5.6245  -5.4970  -4.1539  -3.9008  -2.4791  -2.3163  -1.8391  -1.7937
    -1.5274  -1.3198  -0.7828  -0.6023  -0.5028  -0.3775  -0.2126  -0.1655
     5.3403   5.3471   5.6943   5.6983   5.9864   6.0045

          k = 0.4286 0.1429 0.0000 ( 17889 PWs)   bands (ev):

   -49.8252 -49.8251 -49.8246 -49.8244 -21.7583 -21.7575 -21.7540 -21.7530
   -21.7507 -21.7497 -21.7463 -21.7457 -21.7426 -21.7415 -21.7374 -21.7359
    -5.4191  -5.0918  -4.3968  -3.8956  -2.9480  -2.6851  -1.6874  -1.4760
    -1.4652  -1.0948  -0.9866  -0.8753  -0.8619  -0.5770  -0.2661  -0.1296
     5.1814   5.2397   5.5052   6.0889   6.0943   6.2097

          k = 0.4286 0.1429-0.0642 ( 17887 PWs)   bands (ev):

   -49.8252 -49.8251 -49.8245 -49.8244 -21.7581 -21.7574 -21.7540 -21.7532
   -21.7509 -21.7502 -21.7458 -21.7455 -21.7425 -21.7414 -21.7375 -21.7361
    -5.4064  -5.1135  -4.3766  -3.9323  -2.9044  -2.6335  -1.6826  -1.6546
    -1.4086  -1.2497  -0.9600  -0.7863  -0.7349  -0.5947  -0.2708  -0.1422
     5.2144   5.2710   5.5154   6.0043   6.0972   6.2543

          k = 0.4286 0.1429-0.1285 ( 17902 PWs)   bands (ev):

   -49.8252 -49.8251 -49.8245 -49.8244 -21.7577 -21.7571 -21.7543 -21.7537
   -21.7514 -21.7511 -21.7451 -21.7450 -21.7421 -21.7413 -21.7376 -21.7365
    -5.3693  -5.1695  -4.3201  -4.0225  -2.7832  -2.5184  -1.8673  -1.6901
    -1.4633  -1.4383  -0.8971  -0.6678  -0.6059  -0.5512  -0.2893  -0.1871
     5.3119   5.3658   5.5588   5.8644   5.9930   6.0750

          k = 0.4286 0.1429-0.1927 ( 17891 PWs)   bands (ev):

   -49.8252 -49.8251 -49.8245 -49.8244 -21.7570 -21.7568 -21.7545 -21.7543
   -21.7516 -21.7516 -21.7447 -21.7447 -21.7416 -21.7413 -21.7375 -21.7371
    -5.3119  -5.2413  -4.2353  -4.1316  -2.6144  -2.4791  -1.9514  -1.8185
    -1.5314  -1.4923  -0.8190  -0.7379  -0.4348  -0.4318  -0.3271  -0.2737
     5.4643   5.5120   5.6205   5.6716   5.8724   5.8780

          k = 0.4286 0.2857 0.0000 ( 17891 PWs)   bands (ev):

   -49.8251 -49.8250 -49.8247 -49.8245 -21.7580 -21.7571 -21.7556 -21.7546
   -21.7499 -21.7489 -21.7478 -21.7470 -21.7410 -21.7398 -21.7378 -21.7363
    -5.1738  -4.8510  -4.3534  -3.9146  -2.6802  -2.4352  -2.1823  -1.8756
    -1.5035  -1.2503  -1.1781  -1.1753  -1.0989  -0.7800  -0.3158  -0.3072
     4.8818   5.0464   5.6464   6.0234   6.1999   6.4893

          k = 0.4286 0.2857-0.0642 ( 17894 PWs)   bands (ev):

   -49.8251 -49.8250 -49.8246 -49.8245 -21.7579 -21.7571 -21.7556 -21.7547
   -21.7501 -21.7494 -21.7473 -21.7469 -21.7409 -21.7398 -21.7378 -21.7364
    -5.1618  -4.8747  -4.3291  -3.9391  -2.6567  -2.4188  -2.1566  -1.8992
    -1.4746  -1.3806  -1.3268  -1.0453  -0.9876  -0.7875  -0.3236  -0.3193
     4.9201   5.0951   5.6934   5.9840   6.1617   6.4858

          k = 0.4286 0.2857-0.1285 ( 17892 PWs)   bands (ev):

   -49.8251 -49.8250 -49.8246 -49.8245 -21.7576 -21.7569 -21.7557 -21.7551
   -21.7504 -21.7502 -21.7466 -21.7466 -21.7406 -21.7398 -21.7378 -21.7367
    -5.1270  -4.9333  -4.2666  -4.0039  -2.5934  -2.4000  -2.0798  -1.9142
    -1.5986  -1.5159  -1.3439  -0.9894  -0.8905  -0.7350  -0.3672  -0.3367
     5.0363   5.2357   5.7155   5.9531   6.0185   6.4994

          k = 0.4286 0.2857-0.1927 ( 17894 PWs)   bands (ev):

   -49.8251 -49.8250 -49.8246 -49.8245 -21.7571 -21.7568 -21.7557 -21.7555
   -21.7506 -21.7506 -21.7463 -21.7463 -21.7402 -21.7399 -21.7376 -21.7372
    -5.0726  -5.0046  -4.1828  -4.0909  -2.5091  -2.4321  -1.9557  -1.8564
    -1.7721  -1.6936  -1.2242  -1.0966  -0.7549  -0.6870  -0.4001  -0.3740
     5.2232   5.3905   5.5789   5.7767   6.1154   6.3095

     the Fermi energy is     0.2998 ev

!    total energy              =    -558.29675849 Ry
     estimated scf accuracy    <          4.2E-11 Ry
     smearing contrib. (-TS)   =       0.00000000 Ry
     internal energy E=F+TS    =    -558.29675849 Ry

     The total energy is F=E-TS. E is the sum of the following terms:
     one-electron contribution =    -345.38362973 Ry
     hartree contribution      =     185.86785966 Ry
     xc contribution           =     -79.19886632 Ry
     ewald contribution        =    -180.81700925 Ry
     one-center paw contrib.   =    -138.76511285 Ry

     convergence has been achieved in   9 iterations

     Forces acting on atoms (cartesian axes, Ry/au):

     atom    1 type  2   force =     0.00000000    0.00000000   -0.00000022
     atom    2 type  2   force =     0.00000000    0.00000000    0.00000000
     atom    3 type  2   force =     0.00000000    0.00000000    0.00000022
     atom    4 type  2   force =     0.00000000    0.00000000    0.00000000
     atom    5 type  3   force =     0.00000000    0.00000000   -0.00000043
     atom    6 type  3   force =     0.00000000    0.00000000    0.00000000
     atom    7 type  3   force =     0.00000000    0.00000000    0.00000043
     atom    8 type  3   force =     0.00000000    0.00000000    0.00000000
     atom    9 type  1   force =    -0.00203881   -0.00298158   -0.00272653
     atom   10 type  1   force =    -0.00298163    0.00203883   -0.00272659
     atom   11 type  1   force =     0.00298163   -0.00203883   -0.00272659
     atom   12 type  1   force =     0.00203881    0.00298158   -0.00272653
     atom   13 type  1   force =    -0.00203882   -0.00298158    0.00272655
     atom   14 type  1   force =    -0.00298158    0.00203881    0.00272653
     atom   15 type  1   force =     0.00298158   -0.00203881    0.00272653
     atom   16 type  1   force =     0.00203882    0.00298158    0.00272655
     atom   17 type  1   force =    -0.00203883   -0.00298161   -0.00272658
     atom   18 type  1   force =    -0.00298158    0.00203882   -0.00272655
     atom   19 type  1   force =     0.00298158   -0.00203882   -0.00272655
     atom   20 type  1   force =     0.00203883    0.00298161   -0.00272658
     atom   21 type  1   force =    -0.00203883   -0.00298163    0.00272659
     atom   22 type  1   force =    -0.00298161    0.00203883    0.00272658
     atom   23 type  1   force =     0.00298161   -0.00203883    0.00272658
     atom   24 type  1   force =     0.00203883    0.00298163    0.00272659

     Total force =     0.018102     Total SCF correction =     0.000003


     Computing stress (Cartesian axis) and pressure

          total   stress  (Ry/bohr**3)                   (kbar)     P=       13.67
   0.00009635   0.00000000   0.00000000           14.17        0.00        0.00
   0.00000000   0.00009635   0.00000000            0.00       14.17        0.00
   0.00000000   0.00000000   0.00008600            0.00        0.00       12.65


     BFGS Geometry Optimization
     Energy error            =      0.0E+00 Ry
     Gradient error          =      3.0E-03 Ry/Bohr
     Cell gradient error     =      1.4E+01 kbar

     number of scf cycles    =   1
     number of bfgs steps    =   0

     enthalpy           new  =    -558.2967584862 Ry

     new trust radius        =       0.0204997567 bohr
     new conv_thr            =       0.0000000100 Ry

     new unit-cell volume =   1823.25273 a.u.^3 (   270.17818 Ang^3 )
     density =      1.32756 g/cm^3

CELL_PARAMETERS (alat=  9.33732575)
   1.002408832   0.000000000   0.000000000
   0.000000000   1.002408832   0.000000000
   0.000000000   0.000000000   2.228894802

ATOMIC_POSITIONS (crystal)
Al            0.0000000000        0.5000000000        0.7499999894
Al            0.0000000000        0.0000000000        0.5000000000
Al            0.5000000000        0.0000000000        0.2500000106
Al            0.5000000000        0.5000000000        0.0000000000
Na            0.5000000000        0.0000000000        0.7499999791
Na            0.5000000000        0.5000000000        0.5000000000
Na            0.0000000000        0.5000000000        0.2500000209
Na            0.0000000000        0.0000000000        0.0000000000
H             0.8575955996        0.7631938517        0.4188464202
H             0.7631938461        0.6424044028        0.6688464174
H             0.2368061539        0.3575955972        0.6688464174
H             0.1424044004        0.2368061483        0.4188464202
H             0.8575955986        0.2631938517        0.8311535810
H             0.7631938517        0.1424044004        0.5811535798
H             0.2368061483        0.8575955996        0.5811535798
H             0.1424044014        0.7368061483        0.8311535810
H             0.3575955978        0.2631938487        0.9188464176
H             0.2631938517        0.1424044014        0.1688464190
H             0.7368061483        0.8575955986        0.1688464190
H             0.6424044022        0.7368061513        0.9188464176
H             0.3575955972        0.7631938461        0.3311535826
H             0.2631938487        0.6424044022        0.0811535824
H             0.7368061513        0.3575955978        0.0811535824
H             0.6424044028        0.2368061539        0.3311535826



     Writing config-only to output data dir ./NaAlH4.save/
     NEW-OLD atomic charge density approx. for the potential
     extrapolated charge   64.44363, renormalised to   64.00000

     total cpu time spent up to now is       49.8 secs

     Self-consistent Calculation

     iteration #  1     ecut=    70.00 Ry     beta= 0.70
     Davidson diagonalization with overlap
     ethr =  1.00E-06,  avg # of iterations =  4.0

     total cpu time spent up to now is       55.2 secs

     total energy              =    -558.28655181 Ry
     estimated scf accuracy    <       0.00648134 Ry

     iteration #  2     ecut=    70.00 Ry     beta= 0.70
     Davidson diagonalization with overlap
     ethr =  1.01E-05,  avg # of iterations =  3.0

     total cpu time spent up to now is       60.3 secs

     total energy              =    -558.29824282 Ry
     estimated scf accuracy    <       0.01122286 Ry

     iteration #  3     ecut=    70.00 Ry     beta= 0.70
     Davidson diagonalization with overlap
     ethr =  1.01E-05,  avg # of iterations =  2.0

     total cpu time spent up to now is       64.2 secs

     total energy              =    -558.29769080 Ry
     estimated scf accuracy    <       0.00234892 Ry

     iteration #  4     ecut=    70.00 Ry     beta= 0.70
     Davidson diagonalization with overlap
     ethr =  3.67E-06,  avg # of iterations =  2.0

     total cpu time spent up to now is       68.2 secs

     total energy              =    -558.29799622 Ry
     estimated scf accuracy    <       0.00014049 Ry

     iteration #  5     ecut=    70.00 Ry     beta= 0.70
     Davidson diagonalization with overlap
     ethr =  2.20E-07,  avg # of iterations =  2.0

     total cpu time spent up to now is       71.8 secs

     total energy              =    -558.29797555 Ry
     estimated scf accuracy    <       0.00006180 Ry

     iteration #  6     ecut=    70.00 Ry     beta= 0.70
     Davidson diagonalization with overlap
     ethr =  9.66E-08,  avg # of iterations =  2.0

     total cpu time spent up to now is       75.6 secs

     total energy              =    -558.29798237 Ry
     estimated scf accuracy    <       0.00000447 Ry

     iteration #  7     ecut=    70.00 Ry     beta= 0.70
     Davidson diagonalization with overlap
     ethr =  6.98E-09,  avg # of iterations =  3.5

     total cpu time spent up to now is       80.2 secs

     total energy              =    -558.29798391 Ry
     estimated scf accuracy    <       0.00000024 Ry

     iteration #  8     ecut=    70.00 Ry     beta= 0.70
     Davidson diagonalization with overlap
     ethr =  3.72E-10,  avg # of iterations =  3.0

     total cpu time spent up to now is       84.2 secs

     total energy              =    -558.29798373 Ry
     estimated scf accuracy    <       0.00000036 Ry

     iteration #  9     ecut=    70.00 Ry     beta= 0.70
     Davidson diagonalization with overlap
     ethr =  3.72E-10,  avg # of iterations =  2.0

     total cpu time spent up to now is       88.0 secs

     total energy              =    -558.29798379 Ry
     estimated scf accuracy    <       0.00000001 Ry

     iteration # 10     ecut=    70.00 Ry     beta= 0.70
     Davidson diagonalization with overlap
     ethr =  2.17E-11,  avg # of iterations =  2.4

     total cpu time spent up to now is       92.3 secs

     End of self-consistent calculation

          k = 0.0000 0.0000 0.0000 ( 17959 PWs)   bands (ev):

   -49.8690 -49.8683 -49.8683 -49.8675 -21.8014 -21.7971 -21.7971 -21.7939
   -21.7939 -21.7898 -21.7898 -21.7881 -21.7881 -21.7850 -21.7850 -21.7780
    -6.2403  -5.2432  -5.2432  -3.0182  -2.2887  -1.8395  -1.8395  -1.3089
    -1.3089  -0.9045  -0.9045  -0.5633  -0.5633  -0.1338  -0.0888  -0.0888
     4.6782   4.7796   4.9435   4.9435   5.4096   6.2669

          k = 0.0000 0.0000 0.0641 ( 17943 PWs)   bands (ev):

   -49.8690 -49.8684 -49.8681 -49.8675 -21.8011 -21.7969 -21.7969 -21.7941
   -21.7941 -21.7924 -21.7879 -21.7879 -21.7872 -21.7851 -21.7851 -21.7783
    -6.2193  -5.5013  -4.9518  -3.2019  -2.1134  -1.8244  -1.8244  -1.3718
    -1.3718  -0.8286  -0.8286  -0.7247  -0.4373  -0.1419  -0.1193  -0.1193
     4.6841   4.7295   4.8924   4.9266   5.5387   6.3034

          k = 0.0000 0.0000 0.1282 ( 17947 PWs)   bands (ev):

   -49.8689 -49.8686 -49.8679 -49.8676 -21.8003 -21.7966 -21.7966 -21.7949
   -21.7947 -21.7947 -21.7873 -21.7873 -21.7854 -21.7854 -21.7847 -21.7792
    -6.1565  -5.7234  -4.6304  -3.5471  -1.7946  -1.7797  -1.7797  -1.4910
    -1.4910  -0.9285  -0.6726  -0.6726  -0.3394  -0.2065  -0.2065  -0.1662
     4.6599   4.7041   4.7910   4.8676   5.8425   6.4036

          k = 0.0000 0.0000 0.1923 ( 17952 PWs)   bands (ev):

   -49.8688 -49.8687 -49.8678 -49.8677 -21.7989 -21.7971 -21.7961 -21.7961
   -21.7954 -21.7954 -21.7866 -21.7866 -21.7859 -21.7859 -21.7825 -21.7806
    -6.0523  -5.9076  -4.2836  -3.9184  -1.7067  -1.7067  -1.6083  -1.6083
    -1.4711  -1.1782  -0.5004  -0.5004  -0.3389  -0.3389  -0.2638  -0.2067
     4.6431   4.6929   4.7423   4.7994   6.2359   6.5417

          k = 0.0000 0.1425 0.0000 ( 17927 PWs)   bands (ev):

   -49.8690 -49.8683 -49.8682 -49.8676 -21.8014 -21.7979 -21.7969 -21.7941
   -21.7940 -21.7907 -21.7893 -21.7881 -21.7879 -21.7851 -21.7841 -21.7781
    -6.1485  -5.1941  -5.1498  -3.1078  -2.2197  -2.2176  -1.7772  -1.5675
    -1.2432  -1.0703  -0.9105  -0.5520  -0.4764  -0.1575  -0.1494  -0.0685
     4.8373   4.9919   5.1855   5.2040   5.4315   5.9366

          k = 0.0000 0.1425 0.0641 ( 17950 PWs)   bands (ev):

   -49.8689 -49.8684 -49.8681 -49.8676 -21.8011 -21.7978 -21.7968 -21.7944
   -21.7942 -21.7925 -21.7879 -21.7877 -21.7876 -21.7852 -21.7840 -21.7784
    -6.1278  -5.4246  -4.8879  -3.2527  -2.2031  -2.0957  -1.7624  -1.6189
    -1.3121  -0.9883  -0.8328  -0.6850  -0.3974  -0.1818  -0.1674  -0.0738
     4.8077   4.9613   5.1475   5.1890   5.5546   5.9765

          k = 0.0000 0.1425 0.1282 ( 17948 PWs)   bands (ev):

   -49.8689 -49.8686 -49.8680 -49.8676 -21.8003 -21.7975 -21.7965 -21.7950
   -21.7947 -21.7947 -21.7873 -21.7872 -21.7862 -21.7855 -21.7836 -21.7792
    -6.0661  -5.6414  -4.5776  -3.5558  -2.1542  -1.9343  -1.7186  -1.6328
    -1.4334  -0.8943  -0.8191  -0.6814  -0.3782  -0.2553  -0.1832  -0.0899
     4.7652   4.8887   5.1036   5.1471   5.8131   6.0825

          k = 0.0000 0.1425 0.1923 ( 17942 PWs)   bands (ev):

   -49.8688 -49.8687 -49.8678 -49.8677 -21.7991 -21.7978 -21.7960 -21.7959
   -21.7956 -21.7954 -21.7866 -21.7866 -21.7861 -21.7860 -21.7821 -21.7805
    -5.9638  -5.8218  -4.2452  -3.8994  -2.0765  -1.9813  -1.6470  -1.5507
    -1.4142  -1.1437  -0.6362  -0.5199  -0.4763  -0.3724  -0.1534  -0.1169
     4.7627   4.8106   5.0869   5.1038   6.1014   6.2040

          k = 0.0000 0.2850 0.0000 ( 17927 PWs)   bands (ev):

   -49.8689 -49.8684 -49.8681 -49.8677 -21.8014 -21.7994 -21.7964 -21.7946
   -21.7943 -21.7924 -21.7886 -21.7882 -21.7874 -21.7855 -21.7823 -21.7785
    -5.8870  -5.1077  -4.8768  -3.4230  -2.8154  -2.2463  -1.8980  -1.6022
    -1.2129  -1.0554  -0.9558  -0.6973  -0.5933  -0.2538  -0.2472  -0.0672
     5.0818   5.1672   5.4165   5.6098   5.8294   5.9226

          k = 0.0000 0.2850 0.0641 ( 17920 PWs)   bands (ev):

   -49.8688 -49.8684 -49.8681 -49.8677 -21.8012 -21.7993 -21.7963 -21.7948
   -21.7945 -21.7933 -21.7879 -21.7877 -21.7873 -21.7856 -21.7823 -21.7787
    -5.8679  -5.2431  -4.7189  -3.5016  -2.7897  -2.1770  -1.9847  -1.5888
    -1.1817  -1.0791  -0.8685  -0.8553  -0.4912  -0.2923  -0.2269  -0.0697
     5.0766   5.0969   5.5392   5.6321   5.8635   5.9167

          k = 0.0000 0.2850 0.1282 ( 17916 PWs)   bands (ev):

   -49.8688 -49.8685 -49.8680 -49.8677 -21.8005 -21.7990 -21.7961 -21.7955
   -21.7949 -21.7949 -21.7872 -21.7870 -21.7866 -21.7858 -21.7821 -21.7794
    -5.8109  -5.4270  -4.4691  -3.6939  -2.7131  -2.2271  -1.9299  -1.5489
    -1.2888  -1.1224  -0.8911  -0.7168  -0.4593  -0.3635  -0.1892  -0.0789
     5.0241   5.0577   5.6906   5.7214   5.9367   5.9561

          k = 0.0000 0.2850 0.1923 ( 17917 PWs)   bands (ev):

   -49.8687 -49.8686 -49.8679 -49.8678 -21.7996 -21.7989 -21.7962 -21.7962
   -21.7957 -21.7953 -21.7866 -21.7865 -21.7862 -21.7861 -21.7814 -21.7803
    -5.7170  -5.5879  -4.2034  -3.9389  -2.5877  -2.4193  -1.6785  -1.4839
    -1.3995  -1.3957  -0.6915  -0.5835  -0.5372  -0.4637  -0.1375  -0.0996
     5.0050   5.0265   5.7467   5.7671   6.0574   6.0653

          k = 0.0000 0.4275 0.0000 ( 17889 PWs)   bands (ev):

   -49.8687 -49.8685 -49.8680 -49.8678 -21.8012 -21.8006 -21.7957 -21.7951
   -21.7944 -21.7937 -21.7882 -21.7882 -21.7868 -21.7861 -21.7806 -21.7793
    -5.5132  -5.1836  -4.4494  -3.9251  -3.0640  -2.7863  -1.5762  -1.3565
    -1.1501  -1.1337  -1.0522  -0.8216  -0.7766  -0.4710  -0.2346  -0.1519
     5.1480   5.2939   5.5801   5.6706   5.7037   6.1715

          k = 0.0000 0.4275 0.0641 ( 17890 PWs)   bands (ev):

   -49.8687 -49.8685 -49.8680 -49.8678 -21.8011 -21.8005 -21.7957 -21.7952
   -21.7948 -21.7943 -21.7878 -21.7877 -21.7867 -21.7861 -21.7807 -21.7795
    -5.5003  -5.2051  -4.4298  -3.9663  -3.0175  -2.7270  -1.7180  -1.3508
    -1.2949  -1.1451  -0.9478  -0.7562  -0.7056  -0.4744  -0.2425  -0.1558
     5.1704   5.3043   5.5879   5.5988   5.8041   6.2040

          k = 0.0000 0.4275 0.1282 ( 17885 PWs)   bands (ev):

   -49.8687 -49.8686 -49.8679 -49.8678 -21.8005 -21.8001 -21.7958 -21.7958
   -21.7954 -21.7951 -21.7870 -21.7867 -21.7866 -21.7862 -21.7809 -21.7799
    -5.4627  -5.2611  -4.3741  -4.0651  -2.8880  -2.5946  -1.9448  -1.5731
    -1.3208  -1.1823  -0.7723  -0.6831  -0.6113  -0.4471  -0.2650  -0.1716
     5.2289   5.3280   5.5839   5.6262   5.8592   6.1393

          k = 0.0000 0.4275 0.1923 ( 17873 PWs)   bands (ev):

   -49.8686 -49.8686 -49.8679 -49.8679 -21.7999 -21.7997 -21.7966 -21.7966
   -21.7954 -21.7953 -21.7865 -21.7864 -21.7862 -21.7861 -21.7808 -21.7805
    -5.4046  -5.3333  -4.2885  -4.1811  -2.7054  -2.5514  -2.0237  -1.8434
    -1.2819  -1.2331  -0.6878  -0.6327  -0.5353  -0.4310  -0.2597  -0.2077
     5.2980   5.3371   5.6427   5.6829   5.8427   5.9071

          k = 0.1425 0.1425 0.0000 ( 17943 PWs)   bands (ev):

   -49.8689 -49.8683 -49.8683 -49.8676 -21.8014 -21.7978 -21.7976 -21.7947
   -21.7938 -21.7905 -21.7901 -21.7886 -21.7874 -21.7843 -21.7840 -21.7782
    -6.0575  -5.1040  -5.1003  -3.1754  -2.1644  -2.1470  -2.1345  -1.5239
    -1.4697  -1.2660  -0.8719  -0.5046  -0.4206  -0.2614  -0.2092  -0.0633
     5.1790   5.2430   5.2453   5.3168   5.4216   6.0686

          k = 0.1425 0.1425 0.0641 ( 17930 PWs)   bands (ev):

   -49.8689 -49.8684 -49.8681 -49.8676 -21.8011 -21.7977 -21.7975 -21.7949
   -21.7940 -21.7924 -21.7884 -21.7883 -21.7871 -21.7844 -21.7839 -21.7784
    -6.0372  -5.3475  -4.8272  -3.2946  -2.1486  -2.1179  -2.0562  -1.6199
    -1.5043  -1.1540  -0.8087  -0.6423  -0.3582  -0.2684  -0.2231  -0.0668
     5.1519   5.2043   5.2331   5.2567   5.5620   6.0331

          k = 0.1425 0.1425 0.1282 ( 17941 PWs)   bands (ev):

   -49.8689 -49.8685 -49.8680 -49.8677 -21.8004 -21.7976 -21.7972 -21.7955
   -21.7945 -21.7943 -21.7879 -21.7871 -21.7866 -21.7848 -21.7832 -21.7792
    -5.9765  -5.5599  -4.5271  -3.5628  -2.1020  -2.0695  -1.9243  -1.7659
    -1.5099  -0.9631  -0.8547  -0.6687  -0.4330  -0.2836  -0.1989  -0.0783
     5.1139   5.1442   5.1634   5.2490   5.7507   5.9705

          k = 0.1425 0.1425 0.1923 ( 17918 PWs)   bands (ev):

   -49.8688 -49.8687 -49.8678 -49.8677 -21.7993 -21.7981 -21.7968 -21.7961
   -21.7952 -21.7950 -21.7873 -21.7869 -21.7859 -21.7853 -21.7819 -21.7804
    -5.8760  -5.7367  -4.2084  -3.8810  -2.0272  -1.9931  -1.9409  -1.8933
    -1.3432  -1.0975  -0.7651  -0.5820  -0.5148  -0.3805  -0.1398  -0.1010
     5.0970   5.1135   5.1455   5.1967   5.8862   5.9358

          k = 0.1425 0.2850 0.0000 ( 17927 PWs)   bands (ev):

   -49.8688 -49.8684 -49.8682 -49.8677 -21.8013 -21.7993 -21.7971 -21.7956
   -21.7936 -21.7921 -21.7893 -21.7891 -21.7865 -21.7846 -21.7823 -21.7786
    -5.7984  -5.0168  -4.8372  -3.4394  -2.7469  -2.1517  -1.9256  -1.8646
    -1.4606  -1.2701  -0.9451  -0.6218  -0.5539  -0.4081  -0.3567  -0.0734
     5.2830   5.3104   5.4985   5.7141   5.7529   5.7994

          k = 0.1425 0.2850 0.0641 ( 17922 PWs)   bands (ev):

   -49.8688 -49.8684 -49.8681 -49.8677 -21.8011 -21.7992 -21.7971 -21.7958
   -21.7938 -21.7930 -21.7888 -21.7885 -21.7863 -21.7846 -21.7823 -21.7788
    -5.7796  -5.1620  -4.6708  -3.5092  -2.7227  -2.1066  -1.9435  -1.9110
    -1.4398  -1.2490  -0.8757  -0.7897  -0.5385  -0.3766  -0.3210  -0.0718
     5.2727   5.3211   5.4340   5.7392   5.7937   5.9095

          k = 0.1425 0.2850 0.1282 ( 17915 PWs)   bands (ev):

   -49.8688 -49.8685 -49.8680 -49.8678 -21.8005 -21.7990 -21.7970 -21.7963
   -21.7943 -21.7943 -21.7883 -21.7877 -21.7859 -21.7847 -21.7820 -21.7794
    -5.7236  -5.3455  -4.4254  -3.6852  -2.6507  -2.1978  -1.8752  -1.8683
    -1.5103  -1.0915  -1.0351  -0.7430  -0.6125  -0.4237  -0.2026  -0.0712
     5.2550   5.3381   5.3728   5.7702   5.8957   6.1508

          k = 0.1425 0.2850 0.1923 ( 17912 PWs)   bands (ev):

   -49.8687 -49.8686 -49.8679 -49.8678 -21.7997 -21.7990 -21.7971 -21.7968
   -21.7949 -21.7948 -21.7878 -21.7875 -21.7853 -21.7849 -21.7813 -21.7803
    -5.6312  -5.5042  -4.1685  -3.9157  -2.5333  -2.3768  -1.8043  -1.7596
    -1.5044  -1.2928  -0.9055  -0.7400  -0.6118  -0.5031  -0.1225  -0.0830
     5.2530   5.2805   5.4734   5.6399   6.0140   6.1301

          k = 0.1425 0.4275 0.0000 ( 17889 PWs)   bands (ev):

   -49.8687 -49.8685 -49.8680 -49.8678 -21.8011 -21.8006 -21.7966 -21.7964
   -21.7934 -21.7933 -21.7893 -21.7889 -21.7856 -21.7852 -21.7807 -21.7794
    -5.4284  -5.0974  -4.4198  -3.9037  -2.9830  -2.6932  -1.6576  -1.5445
    -1.5083  -1.0551  -1.0537  -0.9564  -0.7754  -0.6760  -0.3676  -0.1029
     5.0904   5.3281   5.5870   5.6793   5.8649   6.1167

          k = 0.1425 0.4275 0.0641 ( 17887 PWs)   bands (ev):

   -49.8687 -49.8685 -49.8680 -49.8678 -21.8009 -21.8004 -21.7966 -21.7965
   -21.7937 -21.7937 -21.7890 -21.7886 -21.7855 -21.7851 -21.7807 -21.7796
    -5.4156  -5.1197  -4.3983  -3.9411  -2.9409  -2.6423  -1.7187  -1.6549
    -1.4308  -1.1992  -1.0105  -0.9174  -0.7702  -0.5713  -0.3808  -0.1046
     5.1104   5.3551   5.5668   5.6249   5.9574   6.1446

          k = 0.1425 0.4275 0.1282 ( 17902 PWs)   bands (ev):

   -49.8686 -49.8685 -49.8680 -49.8679 -21.8005 -21.8001 -21.7969 -21.7969
   -21.7945 -21.7942 -21.7885 -21.7880 -21.7852 -21.7849 -21.7808 -21.7800
    -5.3785  -5.1770  -4.3388  -4.0331  -2.8235  -2.5340  -1.9134  -1.6706
    -1.4325  -1.4155  -0.9555  -0.8027  -0.7861  -0.4381  -0.3844  -0.1179
     5.1716   5.3815   5.5766   5.5868   6.0757   6.1006

          k = 0.1425 0.4275 0.1923 ( 17891 PWs)   bands (ev):

   -49.8686 -49.8686 -49.8679 -49.8679 -21.7999 -21.7998 -21.7974 -21.7973
   -21.7948 -21.7946 -21.7880 -21.7878 -21.7848 -21.7847 -21.7808 -21.7805
    -5.3209  -5.2498  -4.2510  -4.1445  -2.6588  -2.5168  -1.9601  -1.8069
    -1.4940  -1.4685  -0.9050  -0.8520  -0.6356  -0.5137  -0.2509  -0.1613
     5.2621   5.3411   5.5916   5.6486   5.9841   6.1710

          k = 0.2850 0.2850 0.0000 ( 17902 PWs)   bands (ev):

   -49.8687 -49.8683 -49.8683 -49.8678 -21.8012 -21.7990 -21.7987 -21.7967
   -21.7932 -21.7914 -21.7908 -21.7898 -21.7854 -21.7829 -21.7826 -21.7789
    -5.5458  -4.7708  -4.7592  -3.5774  -2.5261  -2.4741  -1.9685  -1.8845
    -1.7722  -1.5393  -1.0233  -0.7985  -0.7636  -0.4928  -0.4792  -0.2188
     4.9434   5.3646   5.5233   5.8195   6.1562   6.2928

          k = 0.2850 0.2850 0.0641 ( 17912 PWs)   bands (ev):

   -49.8687 -49.8684 -49.8682 -49.8678 -21.8010 -21.7990 -21.7987 -21.7969
   -21.7934 -21.7925 -21.7898 -21.7896 -21.7852 -21.7830 -21.7823 -21.7791
    -5.5284  -4.9571  -4.5579  -3.6241  -2.5289  -2.4275  -2.0399  -1.9083
    -1.6411  -1.5892  -0.9613  -0.9549  -0.7083  -0.5053  -0.4491  -0.2147
     4.9692   5.3950   5.5522   5.8312   6.1548   6.1680

          k = 0.2850 0.2850 0.1282 ( 17890 PWs)   bands (ev):

   -49.8687 -49.8685 -49.8681 -49.8678 -21.8005 -21.7990 -21.7985 -21.7973
   -21.7938 -21.7936 -21.7893 -21.7890 -21.7848 -21.7834 -21.7819 -21.7796
    -5.4765  -5.1284  -4.3431  -3.7497  -2.5041  -2.3225  -2.2025  -1.8223
    -1.7569  -1.3829  -1.1606  -0.8422  -0.7907  -0.5485  -0.3586  -0.2107
     5.0508   5.4443   5.5958   5.8949   5.9720   6.2095

          k = 0.2850 0.2850 0.1923 ( 17904 PWs)   bands (ev):

   -49.8686 -49.8685 -49.8680 -49.8679 -21.7999 -21.7993 -21.7982 -21.7978
   -21.7941 -21.7941 -21.7889 -21.7887 -21.7843 -21.7838 -21.7811 -21.7803
    -5.3912  -5.2743  -4.1287  -3.9257  -2.4402  -2.3385  -2.1764  -1.9995
    -1.5867  -1.3768  -1.1610  -0.9558  -0.7247  -0.6244  -0.2741  -0.2252
     5.1906   5.3606   5.6700   5.8065   6.0735   6.2860

          k = 0.2850 0.4275 0.0000 ( 17891 PWs)   bands (ev):

   -49.8686 -49.8684 -49.8681 -49.8679 -21.8008 -21.8002 -21.7982 -21.7978
   -21.7928 -21.7925 -21.7905 -21.7904 -21.7842 -21.7835 -21.7810 -21.7798
    -5.1851  -4.8545  -4.3818  -3.9213  -2.7332  -2.4333  -2.1390  -1.9339
    -1.6148  -1.2512  -1.2011  -1.1153  -1.0981  -0.8782  -0.4457  -0.2476
     4.7879   5.0113   5.7196   6.0261   6.2325   6.2865

          k = 0.2850 0.4275 0.0641 ( 17894 PWs)   bands (ev):

   -49.8686 -49.8684 -49.8681 -49.8679 -21.8007 -21.8002 -21.7982 -21.7979
   -21.7930 -21.7928 -21.7903 -21.7901 -21.7841 -21.7834 -21.7810 -21.7799
    -5.1731  -4.8798  -4.3553  -3.9467  -2.7099  -2.4217  -2.1154  -1.9445
    -1.6151  -1.3262  -1.2707  -1.1033  -1.0597  -0.8061  -0.4590  -0.2526
     4.8244   5.0598   5.7189   5.9835   6.1667   6.3338

          k = 0.2850 0.4275 0.1282 ( 17892 PWs)   bands (ev):

   -49.8685 -49.8684 -49.8681 -49.8680 -21.8004 -21.8000 -21.7984 -21.7982
   -21.7934 -21.7933 -21.7899 -21.7897 -21.7838 -21.7833 -21.7810 -21.7802
    -5.1381  -4.9409  -4.2883  -4.0138  -2.6462  -2.4198  -2.0464  -1.9309
    -1.6641  -1.4628  -1.3565  -1.1211  -0.9686  -0.6994  -0.4773  -0.2770
     4.9381   5.1989   5.6196   5.8483   6.1379   6.4405

          k = 0.2850 0.4275 0.1923 ( 17894 PWs)   bands (ev):

   -49.8685 -49.8685 -49.8680 -49.8680 -21.8000 -21.7998 -21.7986 -21.7985
   -21.7937 -21.7937 -21.7896 -21.7895 -21.7835 -21.7833 -21.7809 -21.7806
    -5.0832  -5.0142  -4.1999  -4.1040  -2.5583  -2.4713  -1.9403  -1.8610
    -1.7572  -1.6491  -1.3044  -1.2148  -0.8296  -0.7165  -0.4221  -0.3351
     5.1310   5.3810   5.4072   5.6413   6.2489   6.4000

          k = 0.4275 0.4275 0.0000 ( 17882 PWs)   bands (ev):

   -49.8684 -49.8682 -49.8682 -49.8681 -21.8004 -21.7997 -21.7995 -21.7988
   -21.7924 -21.7919 -21.7916 -21.7912 -21.7829 -21.7818 -21.7817 -21.7805
    -4.8324  -4.5054  -4.4974  -4.1328  -2.3603  -2.3160  -2.1145  -2.0775
    -1.9886  -1.6145  -1.5743  -1.5511  -0.9841  -0.6713  -0.6553  -0.4554
     4.7494   5.0462   5.0709   5.4607   6.7241   6.7911

          k = 0.4275 0.4275 0.0641 ( 17872 PWs)   bands (ev):

   -49.8684 -49.8683 -49.8682 -49.8681 -21.8003 -21.7997 -21.7995 -21.7989
   -21.7924 -21.7922 -21.7913 -21.7911 -21.7828 -21.7819 -21.7816 -21.7806
    -4.8234  -4.5725  -4.4289  -4.1442  -2.4382  -2.2095  -2.2007  -2.1127
    -1.8340  -1.7113  -1.5989  -1.4114  -1.0084  -0.7030  -0.6783  -0.4743
     4.8032   5.1101   5.1328   5.5210   6.4332   6.8123

          k = 0.4275 0.4275 0.1282 ( 17877 PWs)   bands (ev):

   -49.8684 -49.8683 -49.8682 -49.8681 -21.8002 -21.7997 -21.7995 -21.7991
   -21.7926 -21.7925 -21.7910 -21.7910 -21.7827 -21.7820 -21.7815 -21.7808
    -4.7974  -4.6404  -4.3571  -4.1767  -2.4882  -2.3439  -2.1015  -2.0565
    -1.8218  -1.6382  -1.5844  -1.3031  -1.0423  -0.7897  -0.7187  -0.5322
     4.9610   5.2865   5.2978   5.6632   6.0870   6.5181

          k = 0.4275 0.4275 0.1923 ( 17882 PWs)   bands (ev):

   -49.8684 -49.8684 -49.8681 -49.8681 -21.8000 -21.7998 -21.7994 -21.7993
   -21.7927 -21.7927 -21.7908 -21.7908 -21.7825 -21.7822 -21.7812 -21.7810
    -4.7561  -4.7027  -4.2883  -4.2265  -2.4885  -2.4392  -2.0678  -2.0182
    -1.7885  -1.6606  -1.4405  -1.3102  -1.0083  -0.9058  -0.7037  -0.6211
     5.2007   5.4065   5.5290   5.7167   5.9010   6.1460

          k = 0.2850 0.1425 0.0000 ( 17927 PWs)   bands (ev):

   -49.8688 -49.8684 -49.8682 -49.8677 -21.8014 -21.7991 -21.7974 -21.7955
   -21.7938 -21.7916 -21.7898 -21.7889 -21.7867 -21.7843 -21.7825 -21.7785
    -5.7982  -5.0230  -4.8301  -3.4445  -2.7196  -2.1794  -1.9794  -1.8021
    -1.4636  -1.3115  -0.8639  -0.7126  -0.5821  -0.3333  -0.2574  -0.1667
     5.2073   5.2318   5.5715   5.6255   5.6745   6.2910

          k = 0.2850 0.1425-0.0641 ( 17922 PWs)   bands (ev):

   -49.8688 -49.8684 -49.8681 -49.8677 -21.8011 -21.7991 -21.7974 -21.7957
   -21.7939 -21.7927 -21.7889 -21.7887 -21.7865 -21.7843 -21.7825 -21.7788
    -5.7795  -5.1639  -4.6683  -3.5138  -2.6947  -2.1239  -1.9652  -1.9014
    -1.4956  -1.2119  -0.8675  -0.8055  -0.4742  -0.3637  -0.2691  -0.1686
     5.2194   5.2326   5.5817   5.6425   5.7369   6.1696

          k = 0.2850 0.1425-0.1282 ( 17915 PWs)   bands (ev):

   -49.8688 -49.8685 -49.8680 -49.8678 -21.8005 -21.7988 -21.7974 -21.7962
   -21.7944 -21.7941 -21.7882 -21.7879 -21.7860 -21.7844 -21.7821 -21.7794
    -5.7235  -5.3461  -4.4246  -3.6885  -2.6205  -2.1557  -1.9241  -1.9112
    -1.5723  -1.1002  -1.0135  -0.6755  -0.4901  -0.3317  -0.3110  -0.1771
     5.2501   5.2541   5.6193   5.6567   5.8922   6.0383

          k = 0.2850 0.1425-0.1923 ( 17912 PWs)   bands (ev):

   -49.8687 -49.8686 -49.8679 -49.8678 -21.7997 -21.7989 -21.7973 -21.7968
   -21.7948 -21.7948 -21.7878 -21.7876 -21.7854 -21.7848 -21.7813 -21.7803
    -5.6312  -5.5044  -4.1690  -3.9175  -2.4994  -2.3375  -1.8630  -1.8176
    -1.5516  -1.3456  -0.8107  -0.6310  -0.5322  -0.4077  -0.2465  -0.1997
     5.2870   5.2920   5.6438   5.6478   5.9347   5.9513

          k = 0.4275 0.1425 0.0000 ( 17889 PWs)   bands (ev):

   -49.8687 -49.8685 -49.8680 -49.8678 -21.8012 -21.8004 -21.7970 -21.7961
   -21.7938 -21.7928 -21.7895 -21.7889 -21.7859 -21.7848 -21.7808 -21.7794
    -5.4271  -5.1019  -4.4104  -3.9130  -2.9655  -2.7037  -1.7118  -1.4996
    -1.4904  -1.1214  -1.0150  -0.9017  -0.8911  -0.6066  -0.3003  -0.1615
     5.1223   5.1938   5.4591   6.0259   6.0343   6.1547

          k = 0.4275 0.1425-0.0641 ( 17887 PWs)   bands (ev):

   -49.8687 -49.8685 -49.8680 -49.8678 -21.8010 -21.8003 -21.7970 -21.7962
   -21.7940 -21.7933 -21.7890 -21.7887 -21.7858 -21.7847 -21.7808 -21.7795
    -5.4144  -5.1234  -4.3903  -3.9493  -2.9223  -2.6527  -1.7071  -1.6777
    -1.4335  -1.2755  -0.9885  -0.8136  -0.7645  -0.6244  -0.3049  -0.1741
     5.1553   5.2247   5.4690   5.9410   6.0398   6.1859

          k = 0.4275 0.1425-0.1282 ( 17902 PWs)   bands (ev):

   -49.8686 -49.8685 -49.8680 -49.8679 -21.8005 -21.8000 -21.7972 -21.7967
   -21.7944 -21.7942 -21.7883 -21.7882 -21.7854 -21.7846 -21.7809 -21.7799
    -5.3776  -5.1791  -4.3341  -4.0388  -2.8019  -2.5392  -1.8886  -1.7144
    -1.4876  -1.4632  -0.9255  -0.6966  -0.6344  -0.5826  -0.3232  -0.2187
     5.2527   5.3181   5.5117   5.8015   5.9396   6.0126

          k = 0.4275 0.1425-0.1923 ( 17891 PWs)   bands (ev):

   -49.8686 -49.8686 -49.8679 -49.8679 -21.7999 -21.7997 -21.7975 -21.7973
   -21.7947 -21.7946 -21.7879 -21.7879 -21.7849 -21.7846 -21.7808 -21.7804
    -5.3205  -5.2504  -4.2499  -4.1470  -2.6346  -2.5007  -1.9719  -1.8409
    -1.5557  -1.5170  -0.8476  -0.7666  -0.4644  -0.4638  -0.3607  -0.3051
     5.4050   5.4619   5.5712   5.6112   5.8173   5.8260

          k = 0.4275 0.2850 0.0000 ( 17891 PWs)   bands (ev):

   -49.8686 -49.8684 -49.8681 -49.8679 -21.8009 -21.8000 -21.7985 -21.7976
   -21.7930 -21.7920 -21.7909 -21.7902 -21.7843 -21.7832 -21.7811 -21.7797
    -5.1832  -4.8625  -4.3675  -3.9323  -2.6990  -2.4548  -2.2037  -1.8968
    -1.5292  -1.2770  -1.2038  -1.2005  -1.1271  -0.8094  -0.3487  -0.3381
     4.8338   4.9941   5.5931   5.9715   6.1466   6.4187

          k = 0.4275 0.2850-0.0641 ( 17894 PWs)   bands (ev):

   -49.8686 -49.8684 -49.8681 -49.8679 -21.8008 -21.8000 -21.7985 -21.7977
   -21.7932 -21.7925 -21.7904 -21.7901 -21.7842 -21.7832 -21.7812 -21.7798
    -5.1713  -4.8861  -4.3434  -3.9565  -2.6758  -2.4388  -2.1781  -1.9202
    -1.4996  -1.4068  -1.3521  -1.0723  -1.0153  -0.8172  -0.3544  -0.3521
     4.8718   5.0428   5.6402   5.9288   6.1078   6.4209

          k = 0.4275 0.2850-0.1282 ( 17892 PWs)   bands (ev):

   -49.8685 -49.8684 -49.8681 -49.8680 -21.8004 -21.7998 -21.7987 -21.7980
   -21.7935 -21.7932 -21.7898 -21.7898 -21.7839 -21.7831 -21.7811 -21.7801
    -5.1367  -4.9442  -4.2813  -4.0207  -2.6130  -2.4207  -2.1015  -1.9349
    -1.6223  -1.5400  -1.3706  -1.0170  -0.9186  -0.7652  -0.3978  -0.3691
     4.9869   5.1834   5.6623   5.8934   5.9633   6.4434

          k = 0.4275 0.2850-0.1923 ( 17894 PWs)   bands (ev):

   -49.8685 -49.8685 -49.8680 -49.8680 -21.8000 -21.7997 -21.7987 -21.7984
   -21.7937 -21.7936 -21.7895 -21.7895 -21.7836 -21.7833 -21.7809 -21.7806
    -5.0826  -5.0151  -4.1981  -4.1069  -2.5295  -2.4531  -1.9776  -1.8771
    -1.7956  -1.7165  -1.2511  -1.1239  -0.7840  -0.7171  -0.4310  -0.4057
     5.1726   5.3398   5.5225   5.7210   6.0570   6.2529

     the Fermi energy is     0.2677 ev

!    total energy              =    -558.29798379 Ry
     estimated scf accuracy    <          7.3E-09 Ry
     smearing contrib. (-TS)   =       0.00000000 Ry
     internal energy E=F+TS    =    -558.29798379 Ry

     The total energy is F=E-TS. E is the sum of the following terms:
     one-electron contribution =    -346.11430340 Ry
     hartree contribution      =     186.12687191 Ry
     xc contribution           =     -79.15928599 Ry
     ewald contribution        =    -180.39168435 Ry
     one-center paw contrib.   =    -138.75958196 Ry

     convergence has been achieved in  10 iterations

     Forces acting on atoms (cartesian axes, Ry/au):

     atom    1 type  2   force =     0.00000000    0.00000000   -0.00000010
     atom    2 type  2   force =     0.00000000    0.00000000    0.00000000
     atom    3 type  2   force =     0.00000000    0.00000000    0.00000010
     atom    4 type  2   force =     0.00000000    0.00000000    0.00000000
     atom    5 type  3   force =     0.00000000    0.00000000   -0.00000071
     atom    6 type  3   force =     0.00000000    0.00000000    0.00000000
     atom    7 type  3   force =     0.00000000    0.00000000    0.00000071
     atom    8 type  3   force =     0.00000000    0.00000000    0.00000000
     atom    9 type  1   force =    -0.00097637   -0.00115567   -0.00133722
     atom   10 type  1   force =    -0.00115567    0.00097636   -0.00133723
     atom   11 type  1   force =     0.00115567   -0.00097636   -0.00133723
     atom   12 type  1   force =     0.00097637    0.00115567   -0.00133722
     atom   13 type  1   force =    -0.00097635   -0.00115565    0.00133721
     atom   14 type  1   force =    -0.00115567    0.00097637    0.00133722
     atom   15 type  1   force =     0.00115567   -0.00097637    0.00133722
     atom   16 type  1   force =     0.00097635    0.00115565    0.00133721
     atom   17 type  1   force =    -0.00097635   -0.00115565   -0.00133722
     atom   18 type  1   force =    -0.00115565    0.00097635   -0.00133721
     atom   19 type  1   force =     0.00115565   -0.00097635   -0.00133721
     atom   20 type  1   force =     0.00097635    0.00115565   -0.00133722
     atom   21 type  1   force =    -0.00097636   -0.00115567    0.00133723
     atom   22 type  1   force =    -0.00115565    0.00097635    0.00133722
     atom   23 type  1   force =     0.00115565   -0.00097635    0.00133722
     atom   24 type  1   force =     0.00097636    0.00115567    0.00133723

     Total force =     0.008077     Total SCF correction =     0.000018


     Computing stress (Cartesian axis) and pressure

          total   stress  (Ry/bohr**3)                   (kbar)     P=        9.17
   0.00006440   0.00000000   0.00000000            9.47        0.00        0.00
  -0.00000000   0.00006440   0.00000000           -0.00        9.47        0.00
   0.00000000   0.00000000   0.00005825            0.00        0.00        8.57

     Energy error            =      1.2E-03 Ry
     Gradient error          =      1.3E-03 Ry/Bohr
     Cell gradient error     =      9.5E+00 kbar

     number of scf cycles    =   2
     number of bfgs steps    =   1

     enthalpy           old  =    -558.2967584862 Ry
     enthalpy           new  =    -558.2979837903 Ry

     CASE: enthalpy          _new < enthalpy          _old

     new trust radius        =       0.0225739615 bohr
     new conv_thr            =       0.0000000001 Ry

     new unit-cell volume =   1837.28651 a.u.^3 (   272.25777 Ang^3 )
     density =      1.31741 g/cm^3

CELL_PARAMETERS (alat=  9.33732575)
   1.005058548  -0.000000000   0.000000000
   0.000000000   1.005058548   0.000000000
   0.000000000   0.000000000   2.234223581

ATOMIC_POSITIONS (crystal)
Al            0.0000000000        0.5000000000        0.7499999814
Al            0.0000000000        0.0000000000        0.5000000000
Al            0.5000000000       -0.0000000000        0.2500000186
Al            0.5000000000        0.5000000000        0.0000000000
Na            0.5000000000       -0.0000000000        0.7499999245
Na            0.5000000000        0.5000000000        0.5000000000
Na            0.0000000000        0.5000000000        0.2500000755
Na            0.0000000000        0.0000000000        0.0000000000
H             0.8574213914        0.7629852181        0.4187392975
H             0.7629852127        0.6425786099        0.6687392943
H             0.2370147873        0.3574213901        0.6687392943
H             0.1425786086        0.2370147819        0.4187392975
H             0.8574213931        0.2629852211        0.8312607028
H             0.7629852181        0.1425786086        0.5812607025
H             0.2370147819        0.8574213914        0.5812607025
H             0.1425786069        0.7370147789        0.8312607028
H             0.3574213938        0.2629852182        0.9187392954
H             0.2629852211        0.1425786069        0.1687392972
H             0.7370147789        0.8574213931        0.1687392972
H             0.6425786062        0.7370147818        0.9187392954
H             0.3574213901        0.7629852127        0.3312607057
H             0.2629852182        0.6425786062        0.0812607046
H             0.7370147818        0.3574213938        0.0812607046
H             0.6425786099        0.2370147873        0.3312607057



     Writing config-only to output data dir ./NaAlH4.save/
     NEW-OLD atomic charge density approx. for the potential
     extrapolated charge   64.48859, renormalised to   64.00000

     total cpu time spent up to now is       96.6 secs

     Self-consistent Calculation

     iteration #  1     ecut=    70.00 Ry     beta= 0.70
     Davidson diagonalization with overlap
     c_bands:  1 eigenvalues not converged
     ethr =  1.00E-06,  avg # of iterations =  3.9

     total cpu time spent up to now is      102.0 secs

     total energy              =    -558.28477729 Ry
     estimated scf accuracy    <       0.00793822 Ry

     iteration #  2     ecut=    70.00 Ry     beta= 0.70
     Davidson diagonalization with overlap
     ethr =  1.24E-05,  avg # of iterations =  3.0

     total cpu time spent up to now is      106.9 secs

     total energy              =    -558.29902766 Ry
     estimated scf accuracy    <       0.01365960 Ry

     iteration #  3     ecut=    70.00 Ry     beta= 0.70
     Davidson diagonalization with overlap
     ethr =  1.24E-05,  avg # of iterations =  2.0

     total cpu time spent up to now is      110.7 secs

     total energy              =    -558.29856923 Ry
     estimated scf accuracy    <       0.00285345 Ry

     iteration #  4     ecut=    70.00 Ry     beta= 0.70
     Davidson diagonalization with overlap
     ethr =  4.46E-06,  avg # of iterations =  2.0

     total cpu time spent up to now is      114.4 secs

     total energy              =    -558.29869787 Ry
     estimated scf accuracy    <       0.00038832 Ry

     iteration #  5     ecut=    70.00 Ry     beta= 0.70
     Davidson diagonalization with overlap
     ethr =  6.07E-07,  avg # of iterations =  2.0

     total cpu time spent up to now is      118.1 secs

     total energy              =    -558.29869631 Ry
     estimated scf accuracy    <       0.00007072 Ry

     iteration #  6     ecut=    70.00 Ry     beta= 0.70
     Davidson diagonalization with overlap
     ethr =  1.11E-07,  avg # of iterations =  2.0

     total cpu time spent up to now is      122.2 secs

     total energy              =    -558.29871646 Ry
     estimated scf accuracy    <       0.00000047 Ry

     iteration #  7     ecut=    70.00 Ry     beta= 0.70
     Davidson diagonalization with overlap
     ethr =  7.39E-10,  avg # of iterations =  5.0

     total cpu time spent up to now is      127.5 secs

     total energy              =    -558.29871708 Ry
     estimated scf accuracy    <       0.00000090 Ry

     iteration #  8     ecut=    70.00 Ry     beta= 0.70
     Davidson diagonalization with overlap
     ethr =  7.39E-10,  avg # of iterations =  2.3

     total cpu time spent up to now is      131.4 secs

     total energy              =    -558.29871628 Ry
     estimated scf accuracy    <       0.00000149 Ry

     iteration #  9     ecut=    70.00 Ry     beta= 0.70
     Davidson diagonalization with overlap
     ethr =  7.39E-10,  avg # of iterations =  2.0

     total cpu time spent up to now is      135.6 secs

     total energy              =    -558.29871656 Ry
     estimated scf accuracy    <          9.9E-09 Ry

     iteration # 10     ecut=    70.00 Ry     beta= 0.70
     Davidson diagonalization with overlap
     ethr =  1.54E-11,  avg # of iterations =  3.0

     total cpu time spent up to now is      140.3 secs

     total energy              =    -558.29871656 Ry
     estimated scf accuracy    <       0.00000002 Ry

     iteration # 11     ecut=    70.00 Ry     beta= 0.70
     Davidson diagonalization with overlap
     ethr =  1.54E-11,  avg # of iterations =  2.0

     total cpu time spent up to now is      144.1 secs

     total energy              =    -558.29871656 Ry
     estimated scf accuracy    <          3.5E-10 Ry

     iteration # 12     ecut=    70.00 Ry     beta= 0.70
     Davidson diagonalization with overlap
     ethr =  5.51E-13,  avg # of iterations =  3.4

     total cpu time spent up to now is      148.8 secs

     End of self-consistent calculation

          k = 0.0000 0.0000 0.0000 ( 17959 PWs)   bands (ev):

   -49.9195 -49.9188 -49.9188 -49.9181 -21.8513 -21.8471 -21.8471 -21.8440
   -21.8440 -21.8400 -21.8400 -21.8383 -21.8383 -21.8353 -21.8353 -21.8285
    -6.2449  -5.2539  -5.2539  -3.0467  -2.3115  -1.8666  -1.8666  -1.3386
    -1.3386  -0.9366  -0.9366  -0.5996  -0.5996  -0.1692  -0.1257  -0.1257
     4.6041   4.7367   4.8889   4.8889   5.3593   6.2097

          k = 0.0000 0.0000 0.0639 ( 17943 PWs)   bands (ev):

   -49.9195 -49.9190 -49.9187 -49.9181 -21.8510 -21.8469 -21.8469 -21.8442
   -21.8442 -21.8425 -21.8381 -21.8381 -21.8374 -21.8354 -21.8354 -21.8288
    -6.2240  -5.5104  -4.9642  -3.2276  -2.1390  -1.8516  -1.8516  -1.4012
    -1.4012  -0.8611  -0.8611  -0.7606  -0.4737  -0.1774  -0.1560  -0.1560
     4.6106   4.6867   4.8431   4.8669   5.4879   6.2459

          k = 0.0000 0.0000 0.1279 ( 17947 PWs)   bands (ev):

   -49.9194 -49.9191 -49.9185 -49.9182 -21.8501 -21.8466 -21.8466 -21.8449
   -21.8448 -21.8448 -21.8375 -21.8375 -21.8357 -21.8357 -21.8350 -21.8296
    -6.1616  -5.7311  -4.6449  -3.5694  -1.8236  -1.8070  -1.8070  -1.5198
    -1.5198  -0.9635  -0.7060  -0.7060  -0.3757  -0.2427  -0.2427  -0.2018
     4.6174   4.6323   4.7457   4.8040   5.7902   6.3452

          k = 0.0000 0.0000 0.1918 ( 17952 PWs)   bands (ev):

   -49.9194 -49.9193 -49.9184 -49.9183 -21.8488 -21.8470 -21.8461 -21.8461
   -21.8454 -21.8454 -21.8369 -21.8369 -21.8362 -21.8362 -21.8328 -21.8310
    -6.0581  -5.9142  -4.3004  -3.9378  -1.7344  -1.7344  -1.6365  -1.6365
    -1.5027  -1.2118  -0.5348  -0.5348  -0.3742  -0.3742  -0.2998  -0.2425
     4.6006   4.6496   4.6729   4.7327   6.1812   6.4821

          k = 0.0000 0.1421 0.0000 ( 17927 PWs)   bands (ev):

   -49.9195 -49.9188 -49.9188 -49.9181 -21.8513 -21.8478 -21.8469 -21.8442
   -21.8441 -21.8409 -21.8395 -21.8384 -21.8381 -21.8354 -21.8344 -21.8286
    -6.1537  -5.2053  -5.1611  -3.1358  -2.2443  -2.2407  -1.8045  -1.5958
    -1.2733  -1.1001  -0.9425  -0.5889  -0.5121  -0.1945  -0.1854  -0.1055
     4.7746   4.9363   5.1281   5.1468   5.3812   5.8783

          k = 0.0000 0.1421 0.0639 ( 17950 PWs)   bands (ev):

   -49.9195 -49.9190 -49.9187 -49.9182 -21.8510 -21.8477 -21.8468 -21.8444
   -21.8443 -21.8426 -21.8381 -21.8380 -21.8379 -21.8355 -21.8344 -21.8289
    -6.1332  -5.4343  -4.9009  -3.2786  -2.2278  -2.1208  -1.7898  -1.6468
    -1.3419  -1.0188  -0.8652  -0.7209  -0.4333  -0.2185  -0.2038  -0.1108
     4.7479   4.9053   5.0883   5.1329   5.5038   5.9180

          k = 0.0000 0.1421 0.1279 ( 17948 PWs)   bands (ev):

   -49.9194 -49.9191 -49.9185 -49.9182 -21.8502 -21.8475 -21.8465 -21.8450
   -21.8448 -21.8447 -21.8375 -21.8375 -21.8364 -21.8358 -21.8339 -21.8296
    -6.0719  -5.6498  -4.5927  -3.5784  -2.1792  -1.9611  -1.7462  -1.6611
    -1.4625  -0.9290  -0.8509  -0.7146  -0.4130  -0.2912  -0.2206  -0.1270
     4.7090   4.8328   5.0434   5.0917   5.7606   6.0235

          k = 0.0000 0.1421 0.1918 ( 17942 PWs)   bands (ev):

[...]
   -22.0588 -22.0576 -22.0540 -22.0539 -22.0528 -22.0505 -22.0501 -22.0456
    -6.0901  -5.4248  -4.9239  -3.4723  -2.2648  -2.2345  -2.1795  -1.7544
    -1.6413  -1.3033  -0.9779  -0.8341  -0.5437  -0.4650  -0.4140  -0.2539
     4.9183   4.9285   5.0307   5.0371   5.3502   5.8096

          k = 0.1409 0.1409 0.1268 ( 18689 PWs)   bands (ev):

   -50.1365 -50.1362 -50.1357 -50.1355 -22.0646 -22.0620 -22.0616 -22.0601
   -22.0592 -22.0592 -22.0534 -22.0528 -22.0524 -22.0508 -22.0496 -22.0462
    -6.0316  -5.6295  -4.6359  -3.7195  -2.2197  -2.1875  -2.0541  -1.8952
    -1.6566  -1.1198  -1.0413  -0.8428  -0.6111  -0.4716  -0.3973  -0.2671
     4.8663   4.8810   4.9615   5.0456   5.5355   5.7496

          k = 0.1409 0.1409 0.1901 ( 18674 PWs)   bands (ev):

   -50.1364 -50.1363 -50.1356 -50.1356 -22.0637 -22.0626 -22.0612 -22.0607
   -22.0599 -22.0597 -22.0529 -22.0526 -22.0518 -22.0513 -22.0485 -22.0473
    -5.9346  -5.8001  -4.3309  -4.0192  -2.1475  -2.1137  -2.0648  -2.0179
    -1.5082  -1.2752  -0.9297  -0.7540  -0.6946  -0.5652  -0.3347  -0.2926
     4.8391   4.8450   4.9591   5.0042   5.6673   5.7156

          k = 0.1409 0.2817 0.0000 ( 18669 PWs)   bands (ev):

   -50.1364 -50.1361 -50.1359 -50.1355 -22.0654 -22.0635 -22.0615 -22.0602
   -22.0585 -22.0572 -22.0548 -22.0544 -22.0523 -22.0507 -22.0488 -22.0456
    -5.8621  -5.1136  -4.9348  -3.6121  -2.8330  -2.2670  -2.0495  -1.9843
    -1.6031  -1.4133  -1.1086  -0.7921  -0.7486  -0.6022  -0.5368  -0.2599
     5.0406   5.0743   5.2466   5.5074   5.5623   5.5904

          k = 0.1409 0.2817 0.0634 ( 18676 PWs)   bands (ev):

   -50.1364 -50.1361 -50.1358 -50.1355 -22.0652 -22.0634 -22.0615 -22.0604
   -22.0586 -22.0580 -22.0543 -22.0542 -22.0521 -22.0507 -22.0488 -22.0458
    -5.8440  -5.2510  -4.7774  -3.6761  -2.8096  -2.2253  -2.0619  -2.0353
    -1.5785  -1.3987  -1.0404  -0.9660  -0.7202  -0.5580  -0.5167  -0.2594
     5.0301   5.0883   5.1863   5.5296   5.6016   5.6959

          k = 0.1409 0.2817 0.1268 ( 18684 PWs)   bands (ev):

   -50.1364 -50.1362 -50.1358 -50.1356 -22.0647 -22.0633 -22.0615 -22.0608
   -22.0591 -22.0590 -22.0538 -22.0534 -22.0518 -22.0508 -22.0486 -22.0464
    -5.7901  -5.4267  -4.5430  -3.8399  -2.7403  -2.3068  -2.0072  -1.9942
    -1.6453  -1.2499  -1.2035  -0.9113  -0.7902  -0.6020  -0.4010  -0.2618
     5.0116   5.0973   5.1403   5.5533   5.6937   5.8918

          k = 0.1409 0.2817 0.1901 ( 18670 PWs)   bands (ev):

   -50.1364 -50.1363 -50.1357 -50.1356 -22.0639 -22.0633 -22.0615 -22.0613
   -22.0596 -22.0594 -22.0534 -22.0531 -22.0513 -22.0509 -22.0480 -22.0472
    -5.7012  -5.5791  -4.2978  -4.0574  -2.6274  -2.4774  -1.9332  -1.8945
    -1.6465  -1.4500  -1.0716  -0.9126  -0.7841  -0.6788  -0.3198  -0.2772
     5.0087   5.0359   5.2487   5.4167   5.7988   5.9186

          k = 0.1409 0.4226 0.0000 ( 18646 PWs)   bands (ev):

   -50.1363 -50.1362 -50.1358 -50.1356 -22.0651 -22.0646 -22.0611 -22.0609
   -22.0583 -22.0582 -22.0547 -22.0545 -22.0515 -22.0512 -22.0474 -22.0464
    -5.5103  -5.1962  -4.5363  -4.0462  -3.0554  -2.7815  -1.7929  -1.6787
    -1.6568  -1.2163  -1.2038  -1.1115  -0.9552  -0.8536  -0.5498  -0.2909
     4.8555   5.1175   5.3666   5.4865   5.6035   5.9046

          k = 0.1409 0.4226 0.0634 ( 18640 PWs)   bands (ev):

   -50.1363 -50.1362 -50.1358 -50.1356 -22.0650 -22.0645 -22.0611 -22.0610
   -22.0586 -22.0585 -22.0545 -22.0541 -22.0514 -22.0511 -22.0475 -22.0465
    -5.4982  -5.2174  -4.5149  -4.0800  -3.0163  -2.7355  -1.8508  -1.7908
    -1.5748  -1.3484  -1.1744  -1.0744  -0.9415  -0.7553  -0.5632  -0.2936
     4.8766   5.1369   5.3544   5.4133   5.7122   5.9294

          k = 0.1409 0.4226 0.1268 ( 18643 PWs)   bands (ev):

   -50.1363 -50.1362 -50.1357 -50.1357 -22.0646 -22.0642 -22.0614 -22.0614
   -22.0592 -22.0590 -22.0540 -22.0536 -22.0512 -22.0510 -22.0476 -22.0468
    -5.4630  -5.2718  -4.4562  -4.1644  -2.9071  -2.6374  -2.0351  -1.8076
    -1.5746  -1.5558  -1.1182  -0.9703  -0.9524  -0.6174  -0.5756  -0.3093
     4.9398   5.1491   5.3544   5.3819   5.8557   5.8589

          k = 0.1409 0.4226 0.1901 ( 18668 PWs)   bands (ev):

   -50.1363 -50.1362 -50.1357 -50.1357 -22.0641 -22.0640 -22.0617 -22.0617
   -22.0594 -22.0593 -22.0536 -22.0534 -22.0509 -22.0508 -22.0476 -22.0473
    -5.4083  -5.3409  -4.3706  -4.2688  -2.7538  -2.6225  -2.0797  -1.9372
    -1.6313  -1.6081  -1.0680  -1.0168  -0.8093  -0.6917  -0.4441  -0.3546
     5.0317   5.1097   5.3604   5.4184   5.7853   5.9654

          k = 0.2817 0.2817 0.0000 ( 18652 PWs)   bands (ev):

   -50.1364 -50.1360 -50.1360 -50.1356 -22.0652 -22.0632 -22.0630 -22.0612
   -22.0581 -22.0566 -22.0561 -22.0551 -22.0514 -22.0492 -22.0490 -22.0459
    -5.6205  -4.8788  -4.8666  -3.7474  -2.6209  -2.5693  -2.0916  -2.0077
    -1.8954  -1.6640  -1.1796  -0.9715  -0.9411  -0.6674  -0.6565  -0.4016
     4.7239   5.1250   5.3146   5.5721   5.9051   6.0195

          k = 0.2817 0.2817 0.0634 ( 18647 PWs)   bands (ev):

   -50.1364 -50.1361 -50.1359 -50.1356 -22.0651 -22.0632 -22.0629 -22.0613
   -22.0583 -22.0575 -22.0552 -22.0549 -22.0512 -22.0494 -22.0488 -22.0461
    -5.6038  -5.0565  -4.6749  -3.7906  -2.6242  -2.5237  -2.1558  -2.0357
    -1.7660  -1.7173  -1.1251  -1.1186  -0.8813  -0.6792  -0.6302  -0.3988
     4.7499   5.1499   5.3463   5.5783   5.8803   5.9211

          k = 0.2817 0.2817 0.1268 ( 18658 PWs)   bands (ev):

   -50.1363 -50.1361 -50.1358 -50.1356 -22.0647 -22.0632 -22.0628 -22.0617
   -22.0586 -22.0584 -22.0546 -22.0545 -22.0509 -22.0497 -22.0485 -22.0465
    -5.5541  -5.2204  -4.4699  -3.9078  -2.6011  -2.4217  -2.3120  -1.9474
    -1.8841  -1.5223  -1.3236  -1.0024  -0.9561  -0.7197  -0.5456  -0.3975
     4.8312   5.1967   5.3738   5.6460   5.6970   5.9705

          k = 0.2817 0.2817 0.1901 ( 18645 PWs)   bands (ev):

   -50.1363 -50.1362 -50.1357 -50.1357 -22.0641 -22.0635 -22.0625 -22.0621
   -22.0589 -22.0588 -22.0543 -22.0542 -22.0505 -22.0500 -22.0479 -22.0472
    -5.4722  -5.3601  -4.2659  -4.0735  -2.5403  -2.4427  -2.2803  -2.1100
    -1.7315  -1.5313  -1.3094  -1.1130  -0.8885  -0.7920  -0.4635  -0.4143
     4.9683   5.1313   5.4096   5.5346   5.8424   6.0661

          k = 0.2817 0.4226 0.0000 ( 18653 PWs)   bands (ev):

   -50.1362 -50.1361 -50.1359 -50.1357 -22.0649 -22.0643 -22.0625 -22.0621
   -22.0577 -22.0575 -22.0557 -22.0557 -22.0503 -22.0498 -22.0477 -22.0467
    -5.2776  -4.9633  -4.5080  -4.0711  -2.8151  -2.5313  -2.2478  -2.0554
    -1.7505  -1.3960  -1.3393  -1.2729  -1.2516  -1.0357  -0.6267  -0.4318
     4.5720   4.7972   5.4904   5.7744   5.9673   6.0446

          k = 0.2817 0.4226 0.0634 ( 18645 PWs)   bands (ev):

   -50.1362 -50.1361 -50.1358 -50.1357 -22.0648 -22.0643 -22.0626 -22.0622
   -22.0579 -22.0578 -22.0555 -22.0554 -22.0503 -22.0497 -22.0477 -22.0468
    -5.2662  -4.9874  -4.4822  -4.0943  -2.7939  -2.5222  -2.2250  -2.0650
    -1.7492  -1.4652  -1.4199  -1.2491  -1.2146  -0.9680  -0.6394  -0.4372
     4.6081   4.8427   5.4864   5.7273   5.9055   6.0834

          k = 0.2817 0.4226 0.1268 ( 18651 PWs)   bands (ev):

   -50.1362 -50.1361 -50.1358 -50.1357 -22.0645 -22.0641 -22.0627 -22.0624
   -22.0583 -22.0582 -22.0552 -22.0550 -22.0500 -22.0496 -22.0477 -22.0470
    -5.2330  -5.0457  -4.4171  -4.1563  -2.7357  -2.5238  -2.1584  -2.0514
    -1.7922  -1.6036  -1.4950  -1.2712  -1.1215  -0.8661  -0.6569  -0.4619
     4.7198   4.9732   5.3824   5.5894   5.8852   6.1640

          k = 0.2817 0.4226 0.1901 ( 18655 PWs)   bands (ev):

   -50.1362 -50.1362 -50.1358 -50.1358 -22.0642 -22.0640 -22.0628 -22.0627
   -22.0585 -22.0585 -22.0549 -22.0548 -22.0498 -22.0496 -22.0476 -22.0474
    -5.1809  -5.1154  -4.3320  -4.2408  -2.6549  -2.5737  -2.0571  -1.9862
    -1.8781  -1.7805  -1.4452  -1.3598  -0.9899  -0.8825  -0.6030  -0.5187
     4.9073   5.1478   5.1700   5.3894   5.9940   6.1307

          k = 0.4226 0.4226 0.0000 ( 18610 PWs)   bands (ev):

   -50.1361 -50.1360 -50.1360 -50.1358 -22.0645 -22.0638 -22.0637 -22.0631
   -22.0573 -22.0569 -22.0567 -22.0563 -22.0493 -22.0484 -22.0483 -22.0473
    -4.9414  -4.6310  -4.6227  -4.2768  -2.4578  -2.4146  -2.2270  -2.1897
    -2.1013  -1.7375  -1.7048  -1.6856  -1.1355  -0.8385  -0.8226  -0.6332
     4.5387   4.8249   4.8503   5.2257   6.4559   6.4747

          k = 0.4226 0.4226 0.0634 ( 18632 PWs)   bands (ev):

   -50.1361 -50.1360 -50.1359 -50.1358 -22.0644 -22.0638 -22.0637 -22.0631
   -22.0574 -22.0572 -22.0564 -22.0562 -22.0492 -22.0484 -22.0482 -22.0473
    -4.9330  -4.6949  -4.5575  -4.2875  -2.5319  -2.3148  -2.3053  -2.2249
    -1.9545  -1.8367  -1.7241  -1.5512  -1.1577  -0.8681  -0.8441  -0.6511
     4.5903   4.8848   4.9094   5.2812   6.1586   6.5165

          k = 0.4226 0.4226 0.1268 ( 18635 PWs)   bands (ev):

   -50.1361 -50.1360 -50.1359 -50.1359 -22.0643 -22.0638 -22.0637 -22.0633
   -22.0575 -22.0575 -22.0561 -22.0561 -22.0491 -22.0486 -22.0481 -22.0475
    -4.9084  -4.7596  -4.4889  -4.3180  -2.5800  -2.4431  -2.2135  -2.1693
    -1.9411  -1.7674  -1.7135  -1.4485  -1.1875  -0.9494  -0.8816  -0.7059
     4.7413   5.0500   5.0656   5.4098   5.8295   6.2370

          k = 0.4226 0.4226 0.1901 ( 18627 PWs)   bands (ev):

   -50.1361 -50.1361 -50.1359 -50.1359 -22.0641 -22.0639 -22.0636 -22.0634
   -22.0576 -22.0576 -22.0560 -22.0560 -22.0489 -22.0487 -22.0479 -22.0477
    -4.8694  -4.8188  -4.4235  -4.3649  -2.5807  -2.5340  -2.1809  -2.1340
    -1.9088  -1.7879  -1.5787  -1.4551  -1.1545  -1.0582  -0.8674  -0.7898
     4.9697   5.1643   5.2766   5.4522   5.6572   5.8875

          k = 0.2817 0.1409 0.0000 ( 18669 PWs)   bands (ev):

   -50.1364 -50.1361 -50.1359 -50.1355 -22.0654 -22.0633 -22.0618 -22.0601
   -22.0586 -22.0568 -22.0553 -22.0543 -22.0524 -22.0504 -22.0490 -22.0456
    -5.8619  -5.1202  -4.9272  -3.6175  -2.8059  -2.2938  -2.1026  -1.9205
    -1.6020  -1.4577  -1.0341  -0.8867  -0.7766  -0.5182  -0.4443  -0.3490
     4.9943   5.0152   5.3547   5.3901   5.4156   6.0138

          k = 0.2817 0.1409-0.0634 ( 18676 PWs)   bands (ev):

   -50.1364 -50.1361 -50.1358 -50.1355 -22.0652 -22.0632 -22.0618 -22.0603
   -22.0588 -22.0577 -22.0544 -22.0541 -22.0523 -22.0504 -22.0489 -22.0458
    -5.8438  -5.2530  -4.7745  -3.6809  -2.7819  -2.2431  -2.0889  -2.0179
    -1.6315  -1.3626  -1.0422  -0.9775  -0.6653  -0.5460  -0.4573  -0.3516
     5.0013   5.0135   5.3642   5.4082   5.4799   5.9224

          k = 0.2817 0.1409-0.1268 ( 18684 PWs)   bands (ev):

   -50.1364 -50.1362 -50.1358 -50.1356 -22.0647 -22.0631 -22.0618 -22.0607
   -22.0591 -22.0589 -22.0537 -22.0535 -22.0519 -22.0505 -22.0487 -22.0464
    -5.7899  -5.4274  -4.5420  -3.8433  -2.7103  -2.2655  -2.0494  -2.0412
    -1.7060  -1.2670  -1.1711  -0.8521  -0.6693  -0.5184  -0.5019  -0.3621
     5.0232   5.0237   5.4063   5.4289   5.6342   5.8106

          k = 0.2817 0.1409-0.1901 ( 18670 PWs)   bands (ev):

   -50.1364 -50.1363 -50.1357 -50.1356 -22.0640 -22.0633 -22.0617 -22.0613
   -22.0595 -22.0594 -22.0534 -22.0532 -22.0513 -22.0508 -22.0480 -22.0472
    -5.7012  -5.5793  -4.2982  -4.0592  -2.5937  -2.4382  -1.9911  -1.9512
    -1.6930  -1.5015  -0.9755  -0.8028  -0.7141  -0.5937  -0.4362  -0.3872
     5.0473   5.0494   5.4326   5.4432   5.7153   5.7307

          k = 0.4226 0.1409 0.0000 ( 18646 PWs)   bands (ev):

   -50.1363 -50.1362 -50.1358 -50.1356 -22.0652 -22.0645 -22.0614 -22.0606
   -22.0586 -22.0578 -22.0549 -22.0544 -22.0518 -22.0509 -22.0475 -22.0463
    -5.5088  -5.2010  -4.5263  -4.0562  -3.0382  -2.7915  -1.8476  -1.6424
    -1.6226  -1.2743  -1.1752  -1.0716  -1.0693  -0.7770  -0.4811  -0.3507
     4.8826   4.9904   5.2821   5.7800   5.8097   5.9010

          k = 0.4226 0.1409-0.0634 ( 18640 PWs)   bands (ev):

   -50.1363 -50.1362 -50.1358 -50.1356 -22.0651 -22.0644 -22.0615 -22.0608
   -22.0588 -22.0582 -22.0545 -22.0542 -22.0517 -22.0508 -22.0476 -22.0464
    -5.4968  -5.2214  -4.5063  -4.0888  -2.9980  -2.7454  -1.8435  -1.8085
    -1.5731  -1.4256  -1.1487  -0.9863  -0.9436  -0.7931  -0.4865  -0.3638
     4.9154   5.0195   5.2899   5.7057   5.8078   5.8948

          k = 0.4226 0.1409-0.1268 ( 18643 PWs)   bands (ev):

   -50.1363 -50.1362 -50.1357 -50.1357 -22.0647 -22.0641 -22.0616 -22.0612
   -22.0591 -22.0589 -22.0539 -22.0538 -22.0514 -22.0507 -22.0477 -22.0468
    -5.4619  -5.2741  -4.4511  -4.1705  -2.8858  -2.6421  -2.0097  -1.8527
    -1.6267  -1.6026  -1.0865  -0.8682  -0.8130  -0.7595  -0.5066  -0.4092
     5.0119   5.1071   5.3266   5.5649   5.7165   5.7444

          k = 0.4226 0.1409-0.1901 ( 18668 PWs)   bands (ev):

   -50.1363 -50.1362 -50.1357 -50.1357 -22.0642 -22.0639 -22.0619 -22.0617
   -22.0594 -22.0593 -22.0535 -22.0535 -22.0510 -22.0507 -22.0476 -22.0473
    -5.4079  -5.3415  -4.3695  -4.2715  -2.7299  -2.6066  -2.0911  -1.9719
    -1.6912  -1.6547  -1.0103  -0.9323  -0.6465  -0.6449  -0.5472  -0.4954
     5.1625   5.2389   5.3706   5.3768   5.5831   5.6131

          k = 0.4226 0.2817 0.0000 ( 18653 PWs)   bands (ev):

   -50.1362 -50.1361 -50.1359 -50.1357 -22.0649 -22.0641 -22.0628 -22.0620
   -22.0579 -22.0571 -22.0561 -22.0554 -22.0505 -22.0495 -22.0478 -22.0466
    -5.2754  -4.9718  -4.4929  -4.0825  -2.7815  -2.5516  -2.3125  -2.0167
    -1.6680  -1.4156  -1.3537  -1.3479  -1.2856  -0.9657  -0.5323  -0.5197
     4.6250   4.7748   5.3517   5.7439   5.9016   6.1160

          k = 0.4226 0.2817-0.0634 ( 18645 PWs)   bands (ev):

   -50.1362 -50.1361 -50.1358 -50.1357 -22.0648 -22.0641 -22.0628 -22.0621
   -22.0580 -22.0575 -22.0557 -22.0553 -22.0504 -22.0495 -22.0478 -22.0467
    -5.2641  -4.9942  -4.4696  -4.1046  -2.7605  -2.5380  -2.2875  -2.0398
    -1.6370  -1.5426  -1.5001  -1.2201  -1.1760  -0.9737  -0.5361  -0.5356
     4.6619   4.8221   5.3952   5.6925   5.8564   6.1344

          k = 0.4226 0.2817-0.1268 ( 18651 PWs)   bands (ev):

   -50.1362 -50.1361 -50.1358 -50.1357 -22.0646 -22.0640 -22.0629 -22.0623
   -22.0583 -22.0581 -22.0551 -22.0551 -22.0501 -22.0495 -22.0478 -22.0470
    -5.2314  -5.0492  -4.4097  -4.1636  -2.7034  -2.5239  -2.2128  -2.0548
    -1.7497  -1.6801  -1.5099  -1.1704  -1.0727  -0.9289  -0.5780  -0.5535
     4.7733   4.9582   5.4204   5.6354   5.7070   6.1718

          k = 0.4226 0.2817-0.1901 ( 18655 PWs)   bands (ev):

   -50.1362 -50.1362 -50.1358 -50.1358 -22.0642 -22.0639 -22.0629 -22.0627
   -22.0585 -22.0585 -22.0549 -22.0549 -22.0498 -22.0496 -22.0477 -22.0473
    -5.1802  -5.1163  -4.3301  -4.2439  -2.6268  -2.5557  -2.0931  -2.0020
    -1.9153  -1.8478  -1.3930  -1.2703  -0.9447  -0.8826  -0.6117  -0.5889
     4.9520   5.1116   5.2837   5.4724   5.7843   5.9774

     the Fermi energy is     3.5709 ev

!    total energy              =    -558.29972424 Ry
     estimated scf accuracy    <          2.9E-11 Ry
     smearing contrib. (-TS)   =      -0.00000000 Ry
     internal energy E=F+TS    =    -558.29972424 Ry

     The total energy is F=E-TS. E is the sum of the following terms:
     one-electron contribution =    -349.27117791 Ry
     hartree contribution      =     187.15911672 Ry
     xc contribution           =     -79.05649461 Ry
     ewald contribution        =    -178.37824532 Ry
     one-center paw contrib.   =    -138.75292311 Ry

     convergence has been achieved in  11 iterations

     Forces acting on atoms (cartesian axes, Ry/au):

     atom    1 type  2   force =     0.00000000    0.00000000   -0.00000031
     atom    2 type  2   force =     0.00000000    0.00000000    0.00000000
     atom    3 type  2   force =     0.00000000    0.00000000    0.00000031
     atom    4 type  2   force =     0.00000000    0.00000000    0.00000000
     atom    5 type  3   force =     0.00000000    0.00000000   -0.00000083
     atom    6 type  3   force =     0.00000000    0.00000000    0.00000000
     atom    7 type  3   force =     0.00000000    0.00000000    0.00000083
     atom    8 type  3   force =     0.00000000    0.00000000    0.00000000
     atom    9 type  1   force =     0.00009852    0.00003935   -0.00000149
     atom   10 type  1   force =     0.00003937   -0.00009855   -0.00000151
     atom   11 type  1   force =    -0.00003937    0.00009855   -0.00000151
     atom   12 type  1   force =    -0.00009852   -0.00003935   -0.00000149
     atom   13 type  1   force =     0.00009853    0.00003938    0.00000149
     atom   14 type  1   force =     0.00003935   -0.00009852    0.00000149
     atom   15 type  1   force =    -0.00003935    0.00009852    0.00000149
     atom   16 type  1   force =    -0.00009853   -0.00003938    0.00000149
     atom   17 type  1   force =     0.00009856    0.00003941   -0.00000149
     atom   18 type  1   force =     0.00003938   -0.00009853   -0.00000149
     atom   19 type  1   force =    -0.00003938    0.00009853   -0.00000149
     atom   20 type  1   force =    -0.00009856   -0.00003941   -0.00000149
     atom   21 type  1   force =     0.00009855    0.00003937    0.00000151
     atom   22 type  1   force =     0.00003941   -0.00009856    0.00000149
     atom   23 type  1   force =    -0.00003941    0.00009856    0.00000149
     atom   24 type  1   force =    -0.00009855   -0.00003937    0.00000151

     Total force =     0.000425     Total SCF correction =     0.000004


     Computing stress (Cartesian axis) and pressure

          total   stress  (Ry/bohr**3)                   (kbar)     P=       -0.17
  -0.00000131   0.00000000   0.00000000           -0.19        0.00        0.00
   0.00000000  -0.00000131   0.00000000            0.00       -0.19        0.00
   0.00000000   0.00000000  -0.00000087            0.00        0.00       -0.13


     Writing all to output data dir ./NaAlH4.save/
 
     init_run     :      4.61s CPU      4.80s WALL (       2 calls)
     electrons    :    472.43s CPU    490.45s WALL (      10 calls)
     update_pot   :      6.14s CPU      6.19s WALL (       8 calls)
     forces       :      9.90s CPU     10.07s WALL (      10 calls)
     stress       :     20.99s CPU     21.17s WALL (      10 calls)

     Called by init_run:
     wfcinit      :      3.14s CPU      3.22s WALL (       2 calls)
     potinit      :      0.60s CPU      0.61s WALL (       2 calls)
     hinit0       :      0.68s CPU      0.69s WALL (       2 calls)

     Called by electrons:
     c_bands      :    401.74s CPU    416.11s WALL (     110 calls)
     sum_band     :     56.70s CPU     58.22s WALL (     110 calls)
     v_of_rho     :      0.87s CPU      0.88s WALL (     119 calls)
     newd         :      3.50s CPU      3.83s WALL (     119 calls)
     PAW_pot      :     11.18s CPU     11.25s WALL (     127 calls)
     mix_rho      :      0.25s CPU      0.26s WALL (     110 calls)

     Called by c_bands:
     init_us_2    :      8.63s CPU      9.11s WALL (   13000 calls)
     init_us_2:cp :      8.56s CPU      9.06s WALL (   13000 calls)
     cegterg      :    364.83s CPU    371.75s WALL (    5721 calls)

     Called by *egterg:
     cdiaghg      :     36.38s CPU     36.68s WALL (   22419 calls)
     h_psi        :    260.47s CPU    266.51s WALL (   22992 calls)
     s_psi        :     19.16s CPU     19.36s WALL (   22992 calls)
     g_psi        :      2.08s CPU      2.11s WALL (   17167 calls)

     Called by h_psi:
     h_psi:calbec :     23.67s CPU     24.06s WALL (   22992 calls)
     vloc_psi     :    215.68s CPU    221.14s WALL (   22992 calls)
     add_vuspsi   :     19.41s CPU     19.60s WALL (   22992 calls)

     General routines
     calbec       :     34.83s CPU     35.40s WALL (   31728 calls)
     fft          :      0.55s CPU      0.56s WALL (    1568 calls)
     ffts         :      0.04s CPU      0.04s WALL (     110 calls)
     fftw         :    228.93s CPU    234.51s WALL ( 1443530 calls)
 
     Parallel routines
 
     PWSCF        :   8m36.90s CPU   9m 1.44s WALL

 
   This run was terminated on:  16:36:23   3Dec2023            

=------------------------------------------------------------------------------=
   JOB DONE.
=------------------------------------------------------------------------------=
